REST    45     1                

       2 !NTITLE followed by title
* TITLE                                                                         
*  DATE:     1/22/21     21:12:15      CREATED BY USER: ping                    

 !NATOM,NPRIV,NSTEP,NSAVC,NSAVV,JHSTRT,NDEGF,SEED,NSAVL
         180        2000        1000        1000           0        2000         451 0.100000000000000D+01           0                     1                     4            2096343534               4880450             960664819             542914404

 !ENERGIES and STATISTICS
TTTTTTTTTTTTTTTTTTTTTTTTTTTTTTTTTTTTTTTTTTTTTTTTTTTTTTTTTTTT
TTTTTTTTTTTTTTTTTTTTTTTTTTTTTTTTTTTTTTTTTTTTTTTTTTTTTTTTTTTTTTTTTTTTTTTTTTTTTTTTTTTTTTTTTTTTTTTTTTTTTTTTTTTTTTTTTTTTTTTTTTTTTTTT
       0 0.113236392793541D+09 0.449737922635075D+09 0.334670550158173D+03
 0.224923634856991D+03 0.441293855597247D+06 0.974122283376478D+08
 0.153132145229395D+03 0.299939491662956D+06 0.451081984815769D+08
 0.717914896275959D+02 0.141354363934291D+06 0.101178183703209D+08
 0.341727719858987D+03 0.669341100316346D+06 0.224637970660956D+09
 0.192853496403839D+02 0.397597457449561D+05 0.792296419632224D+06
 0.000000000000000D+00 0.000000000000000D+00 0.000000000000000D+00
 0.000000000000000D+00 0.000000000000000D+00 0.000000000000000D+00
 0.000000000000000D+00 0.000000000000000D+00 0.000000000000000D+00
 0.000000000000000D+00 0.000000000000000D+00 0.000000000000000D+00
 0.000000000000000D+00 0.000000000000000D+00 0.000000000000000D+00
 0.227321057426996D+03 0.444972083685346D+06 0.990420231113454D+08
 0.158266947636947D+03 0.310985430914743D+06 0.484751148111095D+08
 0.239742257000538D+01 0.367822808809925D+04 0.708930814276287D+04
 0.000000000000000D+00 0.000000000000000D+00 0.000000000000000D+00
 0.000000000000000D+00 0.000000000000000D+00 0.000000000000000D+00
 0.000000000000000D+00 0.000000000000000D+00 0.000000000000000D+00
 0.000000000000000D+00 0.000000000000000D+00 0.000000000000000D+00
-0.338204105532844D+03-0.210288535666197D+06 0.615713709018745D+08
-0.551811364173204D+00 0.886605643124682D+04 0.819755019793678D+05
 0.508133875345525D+03 0.302133718852427D+06 0.134614807235965D+09
 0.227321057426996D+03 0.444972083685346D+06 0.990420231113454D+08
 0.717914896275959D+02 0.141354363934291D+06 0.101178183703209D+08
 0.152813172545411D+03 0.310989382460423D+06 0.484923862301047D+08
 0.163720722728484D+03 0.310981479369063D+06 0.484900332960305D+08
 0.000000000000000D+00 0.000000000000000D+00 0.000000000000000D+00
 0.000000000000000D+00 0.000000000000000D+00 0.000000000000000D+00
 0.000000000000000D+00 0.000000000000000D+00 0.000000000000000D+00
 0.000000000000000D+00 0.000000000000000D+00 0.000000000000000D+00
 0.000000000000000D+00 0.000000000000000D+00 0.000000000000000D+00
 0.000000000000000D+00 0.000000000000000D+00 0.000000000000000D+00
 0.000000000000000D+00 0.000000000000000D+00 0.000000000000000D+00
 0.000000000000000D+00 0.000000000000000D+00 0.000000000000000D+00
 0.000000000000000D+00 0.000000000000000D+00 0.000000000000000D+00
 0.000000000000000D+00 0.000000000000000D+00 0.000000000000000D+00
 0.000000000000000D+00 0.000000000000000D+00 0.000000000000000D+00
 0.000000000000000D+00 0.000000000000000D+00 0.000000000000000D+00
 0.000000000000000D+00 0.000000000000000D+00 0.000000000000000D+00
 0.000000000000000D+00 0.000000000000000D+00 0.000000000000000D+00
 0.000000000000000D+00 0.000000000000000D+00 0.000000000000000D+00
 0.000000000000000D+00 0.000000000000000D+00 0.000000000000000D+00
 0.000000000000000D+00 0.000000000000000D+00 0.000000000000000D+00
 0.000000000000000D+00 0.000000000000000D+00 0.000000000000000D+00
 0.000000000000000D+00 0.000000000000000D+00 0.000000000000000D+00
 0.000000000000000D+00 0.000000000000000D+00 0.000000000000000D+00
 0.000000000000000D+00 0.000000000000000D+00 0.000000000000000D+00
 0.000000000000000D+00 0.000000000000000D+00 0.000000000000000D+00
 0.000000000000000D+00 0.000000000000000D+00 0.000000000000000D+00
 0.000000000000000D+00 0.000000000000000D+00 0.000000000000000D+00
 0.000000000000000D+00 0.000000000000000D+00 0.000000000000000D+00
 0.000000000000000D+00 0.000000000000000D+00 0.000000000000000D+00
 0.000000000000000D+00 0.000000000000000D+00 0.000000000000000D+00
 0.000000000000000D+00 0.000000000000000D+00 0.000000000000000D+00
 0.000000000000000D+00 0.000000000000000D+00 0.000000000000000D+00
 0.000000000000000D+00 0.000000000000000D+00 0.000000000000000D+00
 0.000000000000000D+00 0.000000000000000D+00 0.000000000000000D+00
 0.000000000000000D+00 0.000000000000000D+00 0.000000000000000D+00
 0.000000000000000D+00 0.000000000000000D+00 0.000000000000000D+00
 0.000000000000000D+00 0.000000000000000D+00 0.000000000000000D+00
 0.000000000000000D+00 0.000000000000000D+00 0.000000000000000D+00
 0.000000000000000D+00 0.000000000000000D+00 0.000000000000000D+00
 0.220646927798624D+03 0.458774692555208D+01
 0.149969745831478D+03 0.794824358146790D+01
 0.706771819671456D+02 0.797779006639456D+01
 0.334670550158173D+03 0.177371978424949D+02
 0.198798728724780D+02 0.968950148471964D+00
 0.000000000000000D+00 0.000000000000000D+00
 0.000000000000000D+00 0.000000000000000D+00
 0.000000000000000D+00 0.000000000000000D+00
 0.000000000000000D+00 0.000000000000000D+00
 0.000000000000000D+00 0.000000000000000D+00
 0.222486041842673D+03 0.457960051238273D+01
 0.155492715457372D+03 0.771834472200211D+01
 0.183911404404963D+01 0.402881625742432D+00
 0.000000000000000D+00 0.000000000000000D+00
 0.000000000000000D+00 0.000000000000000D+00
 0.000000000000000D+00 0.000000000000000D+00
 0.000000000000000D+00 0.000000000000000D+00
-0.105144267833099D+03 0.140464829736055D+03
 0.443302821562341D+01 0.461909210009615D+01
 0.151066859426213D+03 0.210917537443152D+03
 0.222486041842673D+03 0.457960051238273D+01
 0.706771819671456D+02 0.797779006639456D+01
 0.155494691230212D+03 0.822156397977489D+01
 0.155490739684531D+03 0.822475047478790D+01
 0.000000000000000D+00 0.000000000000000D+00
 0.000000000000000D+00 0.000000000000000D+00
 0.000000000000000D+00 0.000000000000000D+00
 0.000000000000000D+00 0.000000000000000D+00
 0.000000000000000D+00 0.000000000000000D+00
 0.000000000000000D+00 0.000000000000000D+00
 0.000000000000000D+00 0.000000000000000D+00
 0.000000000000000D+00 0.000000000000000D+00
 0.000000000000000D+00 0.000000000000000D+00
 0.000000000000000D+00 0.000000000000000D+00
 0.000000000000000D+00 0.000000000000000D+00
 0.000000000000000D+00 0.000000000000000D+00
 0.000000000000000D+00 0.000000000000000D+00
 0.000000000000000D+00 0.000000000000000D+00
 0.000000000000000D+00 0.000000000000000D+00
 0.000000000000000D+00 0.000000000000000D+00
 0.000000000000000D+00 0.000000000000000D+00
 0.000000000000000D+00 0.000000000000000D+00
 0.000000000000000D+00 0.000000000000000D+00
 0.000000000000000D+00 0.000000000000000D+00
 0.000000000000000D+00 0.000000000000000D+00
 0.000000000000000D+00 0.000000000000000D+00
 0.000000000000000D+00 0.000000000000000D+00
 0.000000000000000D+00 0.000000000000000D+00
 0.000000000000000D+00 0.000000000000000D+00
 0.000000000000000D+00 0.000000000000000D+00
 0.000000000000000D+00 0.000000000000000D+00
 0.000000000000000D+00 0.000000000000000D+00
 0.000000000000000D+00 0.000000000000000D+00
 0.000000000000000D+00 0.000000000000000D+00
 0.000000000000000D+00 0.000000000000000D+00
 0.000000000000000D+00 0.000000000000000D+00
 0.000000000000000D+00 0.000000000000000D+00
 0.000000000000000D+00 0.000000000000000D+00
 0.000000000000000D+00 0.000000000000000D+00
 0.000000000000000D+00 0.000000000000000D+00
 0.411689589194357D+02 0.782205900465411D+05 0.311490225228949D+07
 0.104728988261237D+03 0.215944668680391D+06 0.234582901684685D+08
 0.132945988003624D+02 0.238745928938202D+05 0.290471412446516D+06
 0.782498253711135D+02 0.162623081842837D+06 0.132421833494525D+08
 0.115058237077324D+02 0.190048006094336D+05 0.190519442116619D+06
-0.234039925305251D+02-0.446721294961546D+05 0.104340104944387D+07
-0.148865053166577D+03-0.302343569375974D+06 0.457923303077908D+08
 0.000000000000000D+00 0.000000000000000D+00 0.000000000000000D+00
 0.000000000000000D+00 0.000000000000000D+00 0.000000000000000D+00
 0.589649523847661D+00 0.179462934430788D+04 0.198326537498044D+04
 0.000000000000000D+00 0.000000000000000D+00 0.000000000000000D+00
 0.000000000000000D+00 0.000000000000000D+00 0.000000000000000D+00
 0.000000000000000D+00 0.000000000000000D+00 0.000000000000000D+00
 0.000000000000000D+00 0.000000000000000D+00 0.000000000000000D+00
 0.000000000000000D+00 0.000000000000000D+00 0.000000000000000D+00
 0.000000000000000D+00 0.000000000000000D+00 0.000000000000000D+00
 0.000000000000000D+00 0.000000000000000D+00 0.000000000000000D+00
 0.000000000000000D+00 0.000000000000000D+00 0.000000000000000D+00
 0.000000000000000D+00 0.000000000000000D+00 0.000000000000000D+00
 0.000000000000000D+00 0.000000000000000D+00 0.000000000000000D+00
 0.000000000000000D+00 0.000000000000000D+00 0.000000000000000D+00
 0.000000000000000D+00 0.000000000000000D+00 0.000000000000000D+00
 0.000000000000000D+00 0.000000000000000D+00 0.000000000000000D+00
 0.000000000000000D+00 0.000000000000000D+00 0.000000000000000D+00
 0.000000000000000D+00 0.000000000000000D+00 0.000000000000000D+00
 0.000000000000000D+00 0.000000000000000D+00 0.000000000000000D+00
 0.000000000000000D+00 0.000000000000000D+00 0.000000000000000D+00
 0.000000000000000D+00 0.000000000000000D+00 0.000000000000000D+00
 0.000000000000000D+00 0.000000000000000D+00 0.000000000000000D+00
 0.000000000000000D+00 0.000000000000000D+00 0.000000000000000D+00
 0.000000000000000D+00 0.000000000000000D+00 0.000000000000000D+00
 0.000000000000000D+00 0.000000000000000D+00 0.000000000000000D+00
 0.000000000000000D+00 0.000000000000000D+00 0.000000000000000D+00
 0.000000000000000D+00 0.000000000000000D+00 0.000000000000000D+00
 0.000000000000000D+00 0.000000000000000D+00 0.000000000000000D+00
 0.000000000000000D+00 0.000000000000000D+00 0.000000000000000D+00
 0.000000000000000D+00 0.000000000000000D+00 0.000000000000000D+00
 0.000000000000000D+00 0.000000000000000D+00 0.000000000000000D+00
 0.000000000000000D+00 0.000000000000000D+00 0.000000000000000D+00
 0.000000000000000D+00 0.000000000000000D+00 0.000000000000000D+00
 0.000000000000000D+00 0.000000000000000D+00 0.000000000000000D+00
 0.000000000000000D+00 0.000000000000000D+00 0.000000000000000D+00
 0.000000000000000D+00 0.000000000000000D+00 0.000000000000000D+00
 0.000000000000000D+00 0.000000000000000D+00 0.000000000000000D+00
 0.000000000000000D+00 0.000000000000000D+00 0.000000000000000D+00
 0.000000000000000D+00 0.000000000000000D+00 0.000000000000000D+00
 0.000000000000000D+00 0.000000000000000D+00 0.000000000000000D+00
 0.000000000000000D+00 0.000000000000000D+00 0.000000000000000D+00
 0.000000000000000D+00 0.000000000000000D+00 0.000000000000000D+00
 0.000000000000000D+00 0.000000000000000D+00 0.000000000000000D+00
 0.000000000000000D+00 0.000000000000000D+00 0.000000000000000D+00
 0.000000000000000D+00 0.000000000000000D+00 0.000000000000000D+00
 0.000000000000000D+00 0.000000000000000D+00 0.000000000000000D+00
 0.000000000000000D+00 0.000000000000000D+00 0.000000000000000D+00
 0.000000000000000D+00 0.000000000000000D+00 0.000000000000000D+00
 0.000000000000000D+00 0.000000000000000D+00 0.000000000000000D+00
 0.000000000000000D+00 0.000000000000000D+00 0.000000000000000D+00
 0.000000000000000D+00 0.000000000000000D+00 0.000000000000000D+00
 0.000000000000000D+00 0.000000000000000D+00 0.000000000000000D+00
 0.000000000000000D+00 0.000000000000000D+00 0.000000000000000D+00
 0.000000000000000D+00 0.000000000000000D+00 0.000000000000000D+00
 0.000000000000000D+00 0.000000000000000D+00 0.000000000000000D+00
 0.000000000000000D+00 0.000000000000000D+00 0.000000000000000D+00
 0.000000000000000D+00 0.000000000000000D+00 0.000000000000000D+00
 0.000000000000000D+00 0.000000000000000D+00 0.000000000000000D+00
 0.000000000000000D+00 0.000000000000000D+00 0.000000000000000D+00
 0.000000000000000D+00 0.000000000000000D+00 0.000000000000000D+00
 0.000000000000000D+00 0.000000000000000D+00 0.000000000000000D+00
-0.547730925903137D+01-0.130923006109102D+05 0.933540685941145D+05
 0.000000000000000D+00 0.000000000000000D+00 0.000000000000000D+00
 0.000000000000000D+00 0.000000000000000D+00 0.000000000000000D+00
 0.000000000000000D+00 0.000000000000000D+00 0.000000000000000D+00
 0.000000000000000D+00 0.000000000000000D+00 0.000000000000000D+00
 0.000000000000000D+00 0.000000000000000D+00 0.000000000000000D+00
 0.000000000000000D+00 0.000000000000000D+00 0.000000000000000D+00
 0.000000000000000D+00 0.000000000000000D+00 0.000000000000000D+00
 0.000000000000000D+00 0.000000000000000D+00 0.000000000000000D+00
 0.000000000000000D+00 0.000000000000000D+00 0.000000000000000D+00
 0.000000000000000D+00 0.000000000000000D+00 0.000000000000000D+00
 0.000000000000000D+00 0.000000000000000D+00 0.000000000000000D+00
 0.000000000000000D+00 0.000000000000000D+00 0.000000000000000D+00
 0.000000000000000D+00 0.000000000000000D+00 0.000000000000000D+00
 0.000000000000000D+00 0.000000000000000D+00 0.000000000000000D+00
 0.000000000000000D+00 0.000000000000000D+00 0.000000000000000D+00
 0.000000000000000D+00 0.000000000000000D+00 0.000000000000000D+00
 0.000000000000000D+00 0.000000000000000D+00 0.000000000000000D+00
 0.000000000000000D+00 0.000000000000000D+00 0.000000000000000D+00
 0.000000000000000D+00 0.000000000000000D+00 0.000000000000000D+00
 0.000000000000000D+00 0.000000000000000D+00 0.000000000000000D+00
 0.000000000000000D+00 0.000000000000000D+00 0.000000000000000D+00
 0.000000000000000D+00 0.000000000000000D+00 0.000000000000000D+00
 0.000000000000000D+00 0.000000000000000D+00 0.000000000000000D+00
 0.000000000000000D+00 0.000000000000000D+00 0.000000000000000D+00
 0.000000000000000D+00 0.000000000000000D+00 0.000000000000000D+00
 0.000000000000000D+00 0.000000000000000D+00 0.000000000000000D+00
 0.000000000000000D+00 0.000000000000000D+00 0.000000000000000D+00
 0.000000000000000D+00 0.000000000000000D+00 0.000000000000000D+00
 0.000000000000000D+00 0.000000000000000D+00 0.000000000000000D+00
 0.000000000000000D+00 0.000000000000000D+00 0.000000000000000D+00
 0.000000000000000D+00 0.000000000000000D+00 0.000000000000000D+00
 0.000000000000000D+00 0.000000000000000D+00 0.000000000000000D+00
 0.000000000000000D+00 0.000000000000000D+00 0.000000000000000D+00
 0.000000000000000D+00 0.000000000000000D+00 0.000000000000000D+00
 0.000000000000000D+00 0.000000000000000D+00 0.000000000000000D+00
 0.000000000000000D+00 0.000000000000000D+00 0.000000000000000D+00
 0.000000000000000D+00 0.000000000000000D+00 0.000000000000000D+00
 0.000000000000000D+00 0.000000000000000D+00 0.000000000000000D+00
 0.000000000000000D+00 0.000000000000000D+00 0.000000000000000D+00
 0.000000000000000D+00 0.000000000000000D+00 0.000000000000000D+00
 0.000000000000000D+00 0.000000000000000D+00 0.000000000000000D+00
 0.000000000000000D+00 0.000000000000000D+00 0.000000000000000D+00
 0.000000000000000D+00 0.000000000000000D+00 0.000000000000000D+00
 0.000000000000000D+00 0.000000000000000D+00 0.000000000000000D+00
 0.000000000000000D+00 0.000000000000000D+00 0.000000000000000D+00
 0.000000000000000D+00 0.000000000000000D+00 0.000000000000000D+00
 0.000000000000000D+00 0.000000000000000D+00 0.000000000000000D+00
 0.000000000000000D+00 0.000000000000000D+00 0.000000000000000D+00
 0.000000000000000D+00 0.000000000000000D+00 0.000000000000000D+00
 0.000000000000000D+00 0.000000000000000D+00 0.000000000000000D+00
 0.000000000000000D+00 0.000000000000000D+00 0.000000000000000D+00
 0.000000000000000D+00 0.000000000000000D+00 0.000000000000000D+00
 0.000000000000000D+00 0.000000000000000D+00 0.000000000000000D+00
 0.000000000000000D+00 0.000000000000000D+00 0.000000000000000D+00
 0.000000000000000D+00 0.000000000000000D+00 0.000000000000000D+00
 0.000000000000000D+00 0.000000000000000D+00 0.000000000000000D+00
 0.000000000000000D+00 0.000000000000000D+00 0.000000000000000D+00
 0.000000000000000D+00 0.000000000000000D+00 0.000000000000000D+00
 0.000000000000000D+00 0.000000000000000D+00 0.000000000000000D+00
 0.391102950232705D+02 0.527597851942999D+01
 0.107972334340195D+03 0.843327346665263D+01
 0.119372964469101D+02 0.165428527220837D+01
 0.813115409214184D+02 0.308625788144270D+01
 0.950240030471680D+01 0.222802816571682D+01
-0.223360647480773D+02 0.477501165355987D+01
-0.151171784687987D+03 0.657698016906602D+01
 0.000000000000000D+00 0.000000000000000D+00
 0.000000000000000D+00 0.000000000000000D+00
 0.897314672153941D+00 0.431809062697260D+00
 0.000000000000000D+00 0.000000000000000D+00
 0.000000000000000D+00 0.000000000000000D+00
 0.000000000000000D+00 0.000000000000000D+00
 0.000000000000000D+00 0.000000000000000D+00
 0.000000000000000D+00 0.000000000000000D+00
 0.000000000000000D+00 0.000000000000000D+00
 0.000000000000000D+00 0.000000000000000D+00
 0.000000000000000D+00 0.000000000000000D+00
 0.000000000000000D+00 0.000000000000000D+00
 0.000000000000000D+00 0.000000000000000D+00
 0.000000000000000D+00 0.000000000000000D+00
 0.000000000000000D+00 0.000000000000000D+00
 0.000000000000000D+00 0.000000000000000D+00
 0.000000000000000D+00 0.000000000000000D+00
 0.000000000000000D+00 0.000000000000000D+00
 0.000000000000000D+00 0.000000000000000D+00
 0.000000000000000D+00 0.000000000000000D+00
 0.000000000000000D+00 0.000000000000000D+00
 0.000000000000000D+00 0.000000000000000D+00
 0.000000000000000D+00 0.000000000000000D+00
 0.000000000000000D+00 0.000000000000000D+00
 0.000000000000000D+00 0.000000000000000D+00
 0.000000000000000D+00 0.000000000000000D+00
 0.000000000000000D+00 0.000000000000000D+00
 0.000000000000000D+00 0.000000000000000D+00
 0.000000000000000D+00 0.000000000000000D+00
 0.000000000000000D+00 0.000000000000000D+00
 0.000000000000000D+00 0.000000000000000D+00
 0.000000000000000D+00 0.000000000000000D+00
 0.000000000000000D+00 0.000000000000000D+00
 0.000000000000000D+00 0.000000000000000D+00
 0.000000000000000D+00 0.000000000000000D+00
 0.000000000000000D+00 0.000000000000000D+00
 0.000000000000000D+00 0.000000000000000D+00
 0.000000000000000D+00 0.000000000000000D+00
 0.000000000000000D+00 0.000000000000000D+00
 0.000000000000000D+00 0.000000000000000D+00
 0.000000000000000D+00 0.000000000000000D+00
 0.000000000000000D+00 0.000000000000000D+00
 0.000000000000000D+00 0.000000000000000D+00
 0.000000000000000D+00 0.000000000000000D+00
 0.000000000000000D+00 0.000000000000000D+00
 0.000000000000000D+00 0.000000000000000D+00
 0.000000000000000D+00 0.000000000000000D+00
 0.000000000000000D+00 0.000000000000000D+00
 0.000000000000000D+00 0.000000000000000D+00
 0.000000000000000D+00 0.000000000000000D+00
 0.000000000000000D+00 0.000000000000000D+00
 0.000000000000000D+00 0.000000000000000D+00
 0.000000000000000D+00 0.000000000000000D+00
 0.000000000000000D+00 0.000000000000000D+00
 0.000000000000000D+00 0.000000000000000D+00
 0.000000000000000D+00 0.000000000000000D+00
 0.000000000000000D+00 0.000000000000000D+00
 0.000000000000000D+00 0.000000000000000D+00
 0.000000000000000D+00 0.000000000000000D+00
 0.000000000000000D+00 0.000000000000000D+00
 0.000000000000000D+00 0.000000000000000D+00
-0.654615030545510D+01 0.195574806032048D+01
 0.000000000000000D+00 0.000000000000000D+00
 0.000000000000000D+00 0.000000000000000D+00
 0.000000000000000D+00 0.000000000000000D+00
 0.000000000000000D+00 0.000000000000000D+00
 0.000000000000000D+00 0.000000000000000D+00
 0.000000000000000D+00 0.000000000000000D+00
 0.000000000000000D+00 0.000000000000000D+00
 0.000000000000000D+00 0.000000000000000D+00
 0.000000000000000D+00 0.000000000000000D+00
 0.000000000000000D+00 0.000000000000000D+00
 0.000000000000000D+00 0.000000000000000D+00
 0.000000000000000D+00 0.000000000000000D+00
 0.000000000000000D+00 0.000000000000000D+00
 0.000000000000000D+00 0.000000000000000D+00
 0.000000000000000D+00 0.000000000000000D+00
 0.000000000000000D+00 0.000000000000000D+00
 0.000000000000000D+00 0.000000000000000D+00
 0.000000000000000D+00 0.000000000000000D+00
 0.000000000000000D+00 0.000000000000000D+00
 0.000000000000000D+00 0.000000000000000D+00
 0.000000000000000D+00 0.000000000000000D+00
 0.000000000000000D+00 0.000000000000000D+00
 0.000000000000000D+00 0.000000000000000D+00
 0.000000000000000D+00 0.000000000000000D+00
 0.000000000000000D+00 0.000000000000000D+00
 0.000000000000000D+00 0.000000000000000D+00
 0.000000000000000D+00 0.000000000000000D+00
 0.000000000000000D+00 0.000000000000000D+00
 0.000000000000000D+00 0.000000000000000D+00
 0.000000000000000D+00 0.000000000000000D+00
 0.000000000000000D+00 0.000000000000000D+00
 0.000000000000000D+00 0.000000000000000D+00
 0.000000000000000D+00 0.000000000000000D+00
 0.000000000000000D+00 0.000000000000000D+00
 0.000000000000000D+00 0.000000000000000D+00
 0.000000000000000D+00 0.000000000000000D+00
 0.000000000000000D+00 0.000000000000000D+00
 0.000000000000000D+00 0.000000000000000D+00
 0.000000000000000D+00 0.000000000000000D+00
 0.000000000000000D+00 0.000000000000000D+00
 0.000000000000000D+00 0.000000000000000D+00
 0.000000000000000D+00 0.000000000000000D+00
 0.000000000000000D+00 0.000000000000000D+00
 0.000000000000000D+00 0.000000000000000D+00
 0.000000000000000D+00 0.000000000000000D+00
 0.000000000000000D+00 0.000000000000000D+00
 0.000000000000000D+00 0.000000000000000D+00
 0.000000000000000D+00 0.000000000000000D+00
 0.000000000000000D+00 0.000000000000000D+00
 0.000000000000000D+00 0.000000000000000D+00
 0.000000000000000D+00 0.000000000000000D+00
 0.000000000000000D+00 0.000000000000000D+00
 0.000000000000000D+00 0.000000000000000D+00
 0.000000000000000D+00 0.000000000000000D+00
 0.000000000000000D+00 0.000000000000000D+00
 0.000000000000000D+00 0.000000000000000D+00
 0.000000000000000D+00 0.000000000000000D+00
 0.000000000000000D+00 0.000000000000000D+00
 0.000000000000000D+00 0.000000000000000D+00
-0.144776335017921D+02 0.314818505859359D+05 0.791807049553447D+06
-0.229721928556399D+02 0.495947927489150D+04 0.146648239127690D+06
-0.710087240117488D+01 0.423431259818430D+04 0.121939235887444D+07
 0.884286275329373D+01-0.219159570068396D+05 0.382372956899929D+06
 0.140312951380814D+02-0.369214384046423D+04 0.689990258292131D+05
 0.433717568996803D+01-0.350819073306488D+04 0.565208704835170D+06
-0.246516819924545D+01 0.458516785729692D+04 0.173508028830762D+05
-0.391157292990243D+01 0.645977460802583D+03 0.350403617636699D+04
-0.120909572880885D+01-0.119153745173118D+04 0.357107857569177D+05
-0.592819284219843D+03-0.218703803664283D+06 0.194502327412440D+09
-0.169819314848140D+03 0.711766741074068D+03 0.336568999171641D+08
 0.580685840854864D+01 0.421512792484941D+04 0.278481727015051D+08
-0.169843037424719D+03 0.588284364793781D+03 0.336568031463090D+08
-0.210966865774537D+03-0.203308125455223D+06 0.691380233771524D+08
 0.333893391359315D+02-0.995476624973038D+03 0.197076023403476D+08
 0.581149041091432D+01 0.422928973671820D+04 0.278476934073333D+08
 0.333842134112332D+02-0.999516959399778D+03 0.197083447672682D+08
-0.210826166604151D+03-0.208853677879086D+06 0.745504714386857D+08
 0.000000000000000D+00 0.000000000000000D+00 0.000000000000000D+00
 0.000000000000000D+00 0.000000000000000D+00 0.000000000000000D+00
 0.000000000000000D+00 0.000000000000000D+00 0.000000000000000D+00
 0.000000000000000D+00 0.000000000000000D+00 0.000000000000000D+00
 0.000000000000000D+00 0.000000000000000D+00 0.000000000000000D+00
 0.000000000000000D+00 0.000000000000000D+00 0.000000000000000D+00
 0.000000000000000D+00 0.000000000000000D+00 0.000000000000000D+00
 0.000000000000000D+00 0.000000000000000D+00 0.000000000000000D+00
 0.000000000000000D+00 0.000000000000000D+00 0.000000000000000D+00
 0.000000000000000D+00 0.000000000000000D+00 0.000000000000000D+00
 0.000000000000000D+00 0.000000000000000D+00 0.000000000000000D+00
 0.000000000000000D+00 0.000000000000000D+00 0.000000000000000D+00
 0.000000000000000D+00 0.000000000000000D+00 0.000000000000000D+00
 0.000000000000000D+00 0.000000000000000D+00 0.000000000000000D+00
 0.000000000000000D+00 0.000000000000000D+00 0.000000000000000D+00
 0.000000000000000D+00 0.000000000000000D+00 0.000000000000000D+00
 0.000000000000000D+00 0.000000000000000D+00 0.000000000000000D+00
 0.000000000000000D+00 0.000000000000000D+00 0.000000000000000D+00
 0.000000000000000D+00 0.000000000000000D+00 0.000000000000000D+00
 0.000000000000000D+00 0.000000000000000D+00 0.000000000000000D+00
 0.000000000000000D+00 0.000000000000000D+00 0.000000000000000D+00
 0.000000000000000D+00 0.000000000000000D+00 0.000000000000000D+00
 0.000000000000000D+00 0.000000000000000D+00 0.000000000000000D+00
 0.000000000000000D+00 0.000000000000000D+00 0.000000000000000D+00
 0.000000000000000D+00 0.000000000000000D+00 0.000000000000000D+00
 0.000000000000000D+00 0.000000000000000D+00 0.000000000000000D+00
 0.000000000000000D+00 0.000000000000000D+00 0.000000000000000D+00
 0.000000000000000D+00 0.000000000000000D+00 0.000000000000000D+00
 0.000000000000000D+00 0.000000000000000D+00 0.000000000000000D+00
 0.000000000000000D+00 0.000000000000000D+00 0.000000000000000D+00
 0.000000000000000D+00 0.000000000000000D+00 0.000000000000000D+00
 0.000000000000000D+00 0.000000000000000D+00 0.000000000000000D+00
 0.157409252929680D+02 0.121707352159976D+02
 0.247973963744575D+01 0.819603629166718D+01
 0.211715629909215D+01 0.246010940537699D+02
-0.109579785034198D+02 0.843262625571379D+01
-0.184607192023211D+01 0.557597806487230D+01
-0.175409536653244D+01 0.167190759871081D+02
 0.229258392864846D+01 0.184917829633621D+01
 0.322988730401291D+00 0.128362625721713D+01
-0.595768725865590D+00 0.418335421686227D+01
-0.109351901832142D+03 0.292050210189813D+03
 0.355883370537034D+00 0.129724027479911D+03
 0.210756396242471D+01 0.117981543153566D+03
 0.294142182396890D+00 0.129723995673626D+03
-0.101654062727612D+03 0.155677433237920D+03
-0.497738312486519D+00 0.992650664974646D+02
 0.211464486835910D+01 0.117980400833136D+03
-0.499758479699889D+00 0.992669261390524D+02
-0.104426838939543D+03 0.162389257737196D+03
 0.000000000000000D+00 0.000000000000000D+00
 0.000000000000000D+00 0.000000000000000D+00
 0.000000000000000D+00 0.000000000000000D+00
 0.000000000000000D+00 0.000000000000000D+00
 0.000000000000000D+00 0.000000000000000D+00
 0.000000000000000D+00 0.000000000000000D+00
 0.000000000000000D+00 0.000000000000000D+00
 0.000000000000000D+00 0.000000000000000D+00
 0.000000000000000D+00 0.000000000000000D+00
 0.000000000000000D+00 0.000000000000000D+00
 0.000000000000000D+00 0.000000000000000D+00
 0.000000000000000D+00 0.000000000000000D+00
 0.000000000000000D+00 0.000000000000000D+00
 0.000000000000000D+00 0.000000000000000D+00
 0.000000000000000D+00 0.000000000000000D+00
 0.000000000000000D+00 0.000000000000000D+00
 0.000000000000000D+00 0.000000000000000D+00
 0.000000000000000D+00 0.000000000000000D+00
 0.000000000000000D+00 0.000000000000000D+00
 0.000000000000000D+00 0.000000000000000D+00
 0.000000000000000D+00 0.000000000000000D+00
 0.000000000000000D+00 0.000000000000000D+00
 0.000000000000000D+00 0.000000000000000D+00
 0.000000000000000D+00 0.000000000000000D+00
 0.000000000000000D+00 0.000000000000000D+00
 0.000000000000000D+00 0.000000000000000D+00
 0.000000000000000D+00 0.000000000000000D+00
 0.000000000000000D+00 0.000000000000000D+00
 0.000000000000000D+00 0.000000000000000D+00
 0.000000000000000D+00 0.000000000000000D+00
 0.000000000000000D+00 0.000000000000000D+00
 0.000000000000000D+00 0.000000000000000D+00

 !XOLD, YOLD, ZOLD
 0.197376865305018D+02-0.104719480400156D+02 0.648456836496948D+01
 0.204417156904838D+02-0.963399175978108D+01 0.629353639300265D+01
 0.203479657975752D+02-0.113868511368214D+02 0.632698513257901D+01
 0.193293146108249D+02-0.103592478969947D+02 0.751162795661617D+01
 0.187748036883500D+02-0.102991743655381D+02 0.540114611386691D+01
 0.177578164403190D+02-0.959146259571076D+01 0.549261746941718D+01
 0.189927341589427D+02-0.110703725449264D+02 0.433146728596788D+01
 0.198794880976662D+02-0.115243184805520D+02 0.429134821316439D+01
 0.182753669308194D+02-0.111624984508218D+02 0.311182441397086D+01
 0.181742532784958D+02-0.102011298827538D+02 0.263021616482411D+01
 0.190106755763590D+02-0.121455294257129D+02 0.220117177229601D+01
 0.200359957456756D+02-0.117649487645349D+02 0.200572845411071D+01
 0.189961082565852D+02-0.131849325819510D+02 0.259328128761452D+01
 0.185476477956978D+02-0.119936698426047D+02 0.120274021876606D+01
 0.168312373573434D+02-0.117568239130976D+02 0.325232246116466D+01
 0.160115852257254D+02-0.117025957366800D+02 0.238036926431722D+01
 0.167365490349632D+02-0.125454665210163D+02 0.436227136001149D+01
 0.174865684744068D+02-0.127622987706764D+02 0.498232266140854D+01
 0.154934113692673D+02-0.131643668476549D+02 0.482921628596243D+01
 0.150994542846500D+02-0.138310585775684D+02 0.407640824012919D+01
 0.157657733422992D+02-0.140745905733018D+02 0.605474474245440D+01
 0.163398529500321D+02-0.149787148187214D+02 0.575925708986351D+01
 0.163716265672887D+02-0.135699024237345D+02 0.683740259990962D+01
 0.148056384535907D+02-0.143153631732212D+02 0.655921544340091D+01
 0.144290633521767D+02-0.121160656246977D+02 0.513839554466376D+01
 0.133109027921240D+02-0.122867415675327D+02 0.462540218407576D+01
 0.148288419443336D+02-0.110162583096032D+02 0.590754342105288D+01
 0.157830357401962D+02-0.108278191956854D+02 0.612666458905982D+01
 0.138750248636435D+02-0.986615581318380D+01 0.605460534524600D+01
 0.129391431024391D+02-0.102427915924009D+02 0.644018389788210D+01
 0.144368330401965D+02-0.872945139657324D+01 0.704230314146810D+01
 0.144952990411370D+02-0.924408398576011D+01 0.802518463224414D+01
 0.154785422145791D+02-0.844300171632242D+01 0.678324695173817D+01
 0.135198672906032D+02-0.745642387494227D+01 0.721051146488787D+01
 0.138502061176308D+02-0.684608563485167D+01 0.807808555861283D+01
 0.134650576744569D+02-0.683009928158870D+01 0.629452325002792D+01
 0.120051121218105D+02-0.782835399389535D+01 0.759181936397909D+01