REST    45     1                

       2 !NTITLE followed by title
* TITLE                                                                         
*  DATE:     1/22/21     21:12:14      CREATED BY USER: ping                    

 !NATOM,NPRIV,NSTEP,NSAVC,NSAVV,JHSTRT,NDEGF,SEED,NSAVL
         180       10000        1000        1000           0       10000         451 0.100000000000000D+01           0                     1                     4             255459110            1628533086             196231586             723744424

 !ENERGIES and STATISTICS
TTTTTTTTTTTTTTTTTTTTTTTTTTTTTTTTTTTTTTTTTTTTTTTTTTTTTTTTTTTT
TTTTTTTTTTTTTTTTTTTTTTTTTTTTTTTTTTTTTTTTTTTTTTTTTTTTTTTTTTTTTTTTTTTTTTTTTTTTTTTTTTTTTTTTTTTTTTTTTTTTTTTTTTTTTTTTTTTTTTTTTTTTTTTT
       0 0.114461827633658D+09 0.108437907186602D+11 0.331847075848382D+03
 0.228876982221744D+03 0.213421011844841D+07 0.455881968671244D+09
 0.162297928738902D+03 0.148704514324250D+07 0.221728676251277D+09
 0.665790534828414D+02 0.647164975205892D+06 0.425365558073328D+08
 0.362181964098385D+03 0.331847075848381D+07 0.110420459133986D+10
 0.200811310710071D+02 0.199994761900939D+06 0.401169189759729D+07
 0.000000000000000D+00 0.000000000000000D+00 0.000000000000000D+00
 0.000000000000000D+00 0.000000000000000D+00 0.000000000000000D+00
 0.000000000000000D+00 0.000000000000000D+00 0.000000000000000D+00
 0.000000000000000D+00 0.000000000000000D+00 0.000000000000000D+00
 0.000000000000000D+00 0.000000000000000D+00 0.000000000000000D+00
 0.230644283184953D+03 0.215254146457727D+07 0.463742971743851D+09
 0.168129624024071D+03 0.154205468664857D+07 0.238361986721429D+09
 0.176730096320924D+01 0.183313461288726D+05 0.352343585355565D+05
 0.000000000000000D+00 0.000000000000000D+00 0.000000000000000D+00
 0.000000000000000D+00 0.000000000000000D+00 0.000000000000000D+00
 0.000000000000000D+00 0.000000000000000D+00 0.000000000000000D+00
 0.000000000000000D+00 0.000000000000000D+00 0.000000000000000D+00
-0.144801441080648D+03-0.101907684903916D+07 0.291441220775155D+09
 0.265046782567720D+01-0.802313026627571D+04 0.161004229266250D+07
 0.213226459882456D+03 0.154064996895814D+07 0.662829729257580D+09
 0.230644283184953D+03 0.215254146457727D+07 0.463742971743851D+09
 0.665790534828414D+02 0.647164975205892D+06 0.425365558073328D+08
 0.169794368028367D+03 0.154206454706676D+07 0.238437967628678D+09
 0.166464880019775D+03 0.154204482623039D+07 0.238431659566167D+09
 0.000000000000000D+00 0.000000000000000D+00 0.000000000000000D+00
 0.000000000000000D+00 0.000000000000000D+00 0.000000000000000D+00
 0.000000000000000D+00 0.000000000000000D+00 0.000000000000000D+00
 0.000000000000000D+00 0.000000000000000D+00 0.000000000000000D+00
 0.000000000000000D+00 0.000000000000000D+00 0.000000000000000D+00
 0.000000000000000D+00 0.000000000000000D+00 0.000000000000000D+00
 0.000000000000000D+00 0.000000000000000D+00 0.000000000000000D+00
 0.000000000000000D+00 0.000000000000000D+00 0.000000000000000D+00
 0.000000000000000D+00 0.000000000000000D+00 0.000000000000000D+00
 0.000000000000000D+00 0.000000000000000D+00 0.000000000000000D+00
 0.000000000000000D+00 0.000000000000000D+00 0.000000000000000D+00
 0.000000000000000D+00 0.000000000000000D+00 0.000000000000000D+00
 0.000000000000000D+00 0.000000000000000D+00 0.000000000000000D+00
 0.000000000000000D+00 0.000000000000000D+00 0.000000000000000D+00
 0.000000000000000D+00 0.000000000000000D+00 0.000000000000000D+00
 0.000000000000000D+00 0.000000000000000D+00 0.000000000000000D+00
 0.000000000000000D+00 0.000000000000000D+00 0.000000000000000D+00
 0.000000000000000D+00 0.000000000000000D+00 0.000000000000000D+00
 0.000000000000000D+00 0.000000000000000D+00 0.000000000000000D+00
 0.000000000000000D+00 0.000000000000000D+00 0.000000000000000D+00
 0.000000000000000D+00 0.000000000000000D+00 0.000000000000000D+00
 0.000000000000000D+00 0.000000000000000D+00 0.000000000000000D+00
 0.000000000000000D+00 0.000000000000000D+00 0.000000000000000D+00
 0.000000000000000D+00 0.000000000000000D+00 0.000000000000000D+00
 0.000000000000000D+00 0.000000000000000D+00 0.000000000000000D+00
 0.000000000000000D+00 0.000000000000000D+00 0.000000000000000D+00
 0.000000000000000D+00 0.000000000000000D+00 0.000000000000000D+00
 0.000000000000000D+00 0.000000000000000D+00 0.000000000000000D+00
 0.000000000000000D+00 0.000000000000000D+00 0.000000000000000D+00
 0.000000000000000D+00 0.000000000000000D+00 0.000000000000000D+00
 0.000000000000000D+00 0.000000000000000D+00 0.000000000000000D+00
 0.000000000000000D+00 0.000000000000000D+00 0.000000000000000D+00
 0.000000000000000D+00 0.000000000000000D+00 0.000000000000000D+00
 0.000000000000000D+00 0.000000000000000D+00 0.000000000000000D+00
 0.000000000000000D+00 0.000000000000000D+00 0.000000000000000D+00
 0.000000000000000D+00 0.000000000000000D+00 0.000000000000000D+00
 0.213421011844841D+03 0.629829899645143D+01
 0.148704514324250D+03 0.773531154619277D+01
 0.647164975205892D+02 0.808891398154581D+01
 0.331847075848381D+03 0.172620214594127D+02
 0.199994761900939D+02 0.109093624084799D+01
 0.000000000000000D+00 0.000000000000000D+00
 0.000000000000000D+00 0.000000000000000D+00
 0.000000000000000D+00 0.000000000000000D+00
 0.000000000000000D+00 0.000000000000000D+00
 0.000000000000000D+00 0.000000000000000D+00
 0.215254146457727D+03 0.632057015943103D+01
 0.154205468664857D+03 0.754135969137373D+01
 0.183313461288726D+01 0.403798643621187D+00
 0.000000000000000D+00 0.000000000000000D+00
 0.000000000000000D+00 0.000000000000000D+00
 0.000000000000000D+00 0.000000000000000D+00
 0.000000000000000D+00 0.000000000000000D+00
-0.101907684903916D+03 0.136963301051923D+03
-0.802313026627571D+00 0.126633535476806D+02
 0.154064996895814D+03 0.206269119495020D+03
 0.215254146457727D+03 0.632057015943103D+01
 0.647164975205892D+02 0.808891398154581D+01
 0.154206454706676D+03 0.801037387801453D+01
 0.154204482623039D+03 0.800896345213913D+01
 0.000000000000000D+00 0.000000000000000D+00
 0.000000000000000D+00 0.000000000000000D+00
 0.000000000000000D+00 0.000000000000000D+00
 0.000000000000000D+00 0.000000000000000D+00
 0.000000000000000D+00 0.000000000000000D+00
 0.000000000000000D+00 0.000000000000000D+00
 0.000000000000000D+00 0.000000000000000D+00
 0.000000000000000D+00 0.000000000000000D+00
 0.000000000000000D+00 0.000000000000000D+00
 0.000000000000000D+00 0.000000000000000D+00
 0.000000000000000D+00 0.000000000000000D+00
 0.000000000000000D+00 0.000000000000000D+00
 0.000000000000000D+00 0.000000000000000D+00
 0.000000000000000D+00 0.000000000000000D+00
 0.000000000000000D+00 0.000000000000000D+00
 0.000000000000000D+00 0.000000000000000D+00
 0.000000000000000D+00 0.000000000000000D+00
 0.000000000000000D+00 0.000000000000000D+00
 0.000000000000000D+00 0.000000000000000D+00
 0.000000000000000D+00 0.000000000000000D+00
 0.000000000000000D+00 0.000000000000000D+00
 0.000000000000000D+00 0.000000000000000D+00
 0.000000000000000D+00 0.000000000000000D+00
 0.000000000000000D+00 0.000000000000000D+00
 0.000000000000000D+00 0.000000000000000D+00
 0.000000000000000D+00 0.000000000000000D+00
 0.000000000000000D+00 0.000000000000000D+00
 0.000000000000000D+00 0.000000000000000D+00
 0.000000000000000D+00 0.000000000000000D+00
 0.000000000000000D+00 0.000000000000000D+00
 0.000000000000000D+00 0.000000000000000D+00
 0.000000000000000D+00 0.000000000000000D+00
 0.000000000000000D+00 0.000000000000000D+00
 0.000000000000000D+00 0.000000000000000D+00
 0.000000000000000D+00 0.000000000000000D+00
 0.000000000000000D+00 0.000000000000000D+00
 0.387292113362556D+02 0.405327426568420D+06 0.167215951747825D+08
 0.118199091205560D+03 0.108968535225678D+07 0.119413263255622D+09
 0.148499989645470D+02 0.126839490904982D+06 0.163689654151470D+07
 0.754384273754587D+02 0.836304733668429D+06 0.700329678561170D+08
 0.864226702829246D+01 0.986839949712223D+05 0.102374005600836D+07
-0.249043209521562D+02-0.217658591290772D+06 0.491013515198623D+07
-0.159407224367795D+03-0.164496913127624D+07 0.271261020971638D+09
 0.000000000000000D+00 0.000000000000000D+00 0.000000000000000D+00
 0.000000000000000D+00 0.000000000000000D+00 0.000000000000000D+00
 0.279438344690420D+00 0.122731767975662D+05 0.213273894248403D+05
 0.000000000000000D+00 0.000000000000000D+00 0.000000000000000D+00
 0.000000000000000D+00 0.000000000000000D+00 0.000000000000000D+00
 0.000000000000000D+00 0.000000000000000D+00 0.000000000000000D+00
 0.000000000000000D+00 0.000000000000000D+00 0.000000000000000D+00
 0.000000000000000D+00 0.000000000000000D+00 0.000000000000000D+00
 0.000000000000000D+00 0.000000000000000D+00 0.000000000000000D+00
 0.000000000000000D+00 0.000000000000000D+00 0.000000000000000D+00
 0.000000000000000D+00 0.000000000000000D+00 0.000000000000000D+00
 0.000000000000000D+00 0.000000000000000D+00 0.000000000000000D+00
 0.000000000000000D+00 0.000000000000000D+00 0.000000000000000D+00
 0.000000000000000D+00 0.000000000000000D+00 0.000000000000000D+00
 0.000000000000000D+00 0.000000000000000D+00 0.000000000000000D+00
 0.000000000000000D+00 0.000000000000000D+00 0.000000000000000D+00
 0.000000000000000D+00 0.000000000000000D+00 0.000000000000000D+00
 0.000000000000000D+00 0.000000000000000D+00 0.000000000000000D+00
 0.000000000000000D+00 0.000000000000000D+00 0.000000000000000D+00
 0.000000000000000D+00 0.000000000000000D+00 0.000000000000000D+00
 0.000000000000000D+00 0.000000000000000D+00 0.000000000000000D+00
 0.000000000000000D+00 0.000000000000000D+00 0.000000000000000D+00
 0.000000000000000D+00 0.000000000000000D+00 0.000000000000000D+00
 0.000000000000000D+00 0.000000000000000D+00 0.000000000000000D+00
 0.000000000000000D+00 0.000000000000000D+00 0.000000000000000D+00
 0.000000000000000D+00 0.000000000000000D+00 0.000000000000000D+00
 0.000000000000000D+00 0.000000000000000D+00 0.000000000000000D+00
 0.000000000000000D+00 0.000000000000000D+00 0.000000000000000D+00
 0.000000000000000D+00 0.000000000000000D+00 0.000000000000000D+00
 0.000000000000000D+00 0.000000000000000D+00 0.000000000000000D+00
 0.000000000000000D+00 0.000000000000000D+00 0.000000000000000D+00
 0.000000000000000D+00 0.000000000000000D+00 0.000000000000000D+00
 0.000000000000000D+00 0.000000000000000D+00 0.000000000000000D+00
 0.000000000000000D+00 0.000000000000000D+00 0.000000000000000D+00
 0.000000000000000D+00 0.000000000000000D+00 0.000000000000000D+00
 0.000000000000000D+00 0.000000000000000D+00 0.000000000000000D+00
 0.000000000000000D+00 0.000000000000000D+00 0.000000000000000D+00
 0.000000000000000D+00 0.000000000000000D+00 0.000000000000000D+00
 0.000000000000000D+00 0.000000000000000D+00 0.000000000000000D+00
 0.000000000000000D+00 0.000000000000000D+00 0.000000000000000D+00
 0.000000000000000D+00 0.000000000000000D+00 0.000000000000000D+00
 0.000000000000000D+00 0.000000000000000D+00 0.000000000000000D+00
 0.000000000000000D+00 0.000000000000000D+00 0.000000000000000D+00
 0.000000000000000D+00 0.000000000000000D+00 0.000000000000000D+00
 0.000000000000000D+00 0.000000000000000D+00 0.000000000000000D+00
 0.000000000000000D+00 0.000000000000000D+00 0.000000000000000D+00
 0.000000000000000D+00 0.000000000000000D+00 0.000000000000000D+00
 0.000000000000000D+00 0.000000000000000D+00 0.000000000000000D+00
 0.000000000000000D+00 0.000000000000000D+00 0.000000000000000D+00
 0.000000000000000D+00 0.000000000000000D+00 0.000000000000000D+00
 0.000000000000000D+00 0.000000000000000D+00 0.000000000000000D+00
 0.000000000000000D+00 0.000000000000000D+00 0.000000000000000D+00
 0.000000000000000D+00 0.000000000000000D+00 0.000000000000000D+00
 0.000000000000000D+00 0.000000000000000D+00 0.000000000000000D+00
 0.000000000000000D+00 0.000000000000000D+00 0.000000000000000D+00
 0.000000000000000D+00 0.000000000000000D+00 0.000000000000000D+00
 0.000000000000000D+00 0.000000000000000D+00 0.000000000000000D+00
 0.000000000000000D+00 0.000000000000000D+00 0.000000000000000D+00
 0.000000000000000D+00 0.000000000000000D+00 0.000000000000000D+00
 0.000000000000000D+00 0.000000000000000D+00 0.000000000000000D+00
 0.000000000000000D+00 0.000000000000000D+00 0.000000000000000D+00
-0.524783545201158D+01-0.593214773944980D+05 0.404692480811252D+06
 0.000000000000000D+00 0.000000000000000D+00 0.000000000000000D+00
 0.000000000000000D+00 0.000000000000000D+00 0.000000000000000D+00
 0.000000000000000D+00 0.000000000000000D+00 0.000000000000000D+00
 0.000000000000000D+00 0.000000000000000D+00 0.000000000000000D+00
 0.000000000000000D+00 0.000000000000000D+00 0.000000000000000D+00
 0.000000000000000D+00 0.000000000000000D+00 0.000000000000000D+00
 0.000000000000000D+00 0.000000000000000D+00 0.000000000000000D+00
 0.000000000000000D+00 0.000000000000000D+00 0.000000000000000D+00
 0.000000000000000D+00 0.000000000000000D+00 0.000000000000000D+00
 0.000000000000000D+00 0.000000000000000D+00 0.000000000000000D+00
 0.000000000000000D+00 0.000000000000000D+00 0.000000000000000D+00
 0.000000000000000D+00 0.000000000000000D+00 0.000000000000000D+00
 0.000000000000000D+00 0.000000000000000D+00 0.000000000000000D+00
 0.000000000000000D+00 0.000000000000000D+00 0.000000000000000D+00
 0.000000000000000D+00 0.000000000000000D+00 0.000000000000000D+00
 0.000000000000000D+00 0.000000000000000D+00 0.000000000000000D+00
 0.000000000000000D+00 0.000000000000000D+00 0.000000000000000D+00
 0.000000000000000D+00 0.000000000000000D+00 0.000000000000000D+00
 0.000000000000000D+00 0.000000000000000D+00 0.000000000000000D+00
 0.000000000000000D+00 0.000000000000000D+00 0.000000000000000D+00
 0.000000000000000D+00 0.000000000000000D+00 0.000000000000000D+00
 0.000000000000000D+00 0.000000000000000D+00 0.000000000000000D+00
 0.000000000000000D+00 0.000000000000000D+00 0.000000000000000D+00
 0.000000000000000D+00 0.000000000000000D+00 0.000000000000000D+00
 0.000000000000000D+00 0.000000000000000D+00 0.000000000000000D+00
 0.000000000000000D+00 0.000000000000000D+00 0.000000000000000D+00
 0.000000000000000D+00 0.000000000000000D+00 0.000000000000000D+00
 0.000000000000000D+00 0.000000000000000D+00 0.000000000000000D+00
 0.000000000000000D+00 0.000000000000000D+00 0.000000000000000D+00
 0.000000000000000D+00 0.000000000000000D+00 0.000000000000000D+00
 0.000000000000000D+00 0.000000000000000D+00 0.000000000000000D+00
 0.000000000000000D+00 0.000000000000000D+00 0.000000000000000D+00
 0.000000000000000D+00 0.000000000000000D+00 0.000000000000000D+00
 0.000000000000000D+00 0.000000000000000D+00 0.000000000000000D+00
 0.000000000000000D+00 0.000000000000000D+00 0.000000000000000D+00
 0.000000000000000D+00 0.000000000000000D+00 0.000000000000000D+00
 0.000000000000000D+00 0.000000000000000D+00 0.000000000000000D+00
 0.000000000000000D+00 0.000000000000000D+00 0.000000000000000D+00
 0.000000000000000D+00 0.000000000000000D+00 0.000000000000000D+00
 0.000000000000000D+00 0.000000000000000D+00 0.000000000000000D+00
 0.000000000000000D+00 0.000000000000000D+00 0.000000000000000D+00
 0.000000000000000D+00 0.000000000000000D+00 0.000000000000000D+00
 0.000000000000000D+00 0.000000000000000D+00 0.000000000000000D+00
 0.000000000000000D+00 0.000000000000000D+00 0.000000000000000D+00
 0.000000000000000D+00 0.000000000000000D+00 0.000000000000000D+00
 0.000000000000000D+00 0.000000000000000D+00 0.000000000000000D+00
 0.000000000000000D+00 0.000000000000000D+00 0.000000000000000D+00
 0.000000000000000D+00 0.000000000000000D+00 0.000000000000000D+00
 0.000000000000000D+00 0.000000000000000D+00 0.000000000000000D+00
 0.000000000000000D+00 0.000000000000000D+00 0.000000000000000D+00
 0.000000000000000D+00 0.000000000000000D+00 0.000000000000000D+00
 0.000000000000000D+00 0.000000000000000D+00 0.000000000000000D+00
 0.000000000000000D+00 0.000000000000000D+00 0.000000000000000D+00
 0.000000000000000D+00 0.000000000000000D+00 0.000000000000000D+00
 0.000000000000000D+00 0.000000000000000D+00 0.000000000000000D+00
 0.000000000000000D+00 0.000000000000000D+00 0.000000000000000D+00
 0.000000000000000D+00 0.000000000000000D+00 0.000000000000000D+00
 0.000000000000000D+00 0.000000000000000D+00 0.000000000000000D+00
 0.000000000000000D+00 0.000000000000000D+00 0.000000000000000D+00
 0.405327426568420D+02 0.540890841043429D+01
 0.108968535225678D+03 0.819662469144041D+01
 0.126839490904982D+02 0.167543714329124D+01
 0.836304733668429D+02 0.303985362303489D+01
 0.986839949712223D+01 0.223353911226854D+01
-0.217658591290772D+02 0.415462291571573D+01
-0.164496913127624D+03 0.817726535259194D+01
 0.000000000000000D+00 0.000000000000000D+00
 0.000000000000000D+00 0.000000000000000D+00
 0.122731767975662D+01 0.791473471091012D+00
 0.000000000000000D+00 0.000000000000000D+00
 0.000000000000000D+00 0.000000000000000D+00
 0.000000000000000D+00 0.000000000000000D+00
 0.000000000000000D+00 0.000000000000000D+00
 0.000000000000000D+00 0.000000000000000D+00
 0.000000000000000D+00 0.000000000000000D+00
 0.000000000000000D+00 0.000000000000000D+00
 0.000000000000000D+00 0.000000000000000D+00
 0.000000000000000D+00 0.000000000000000D+00
 0.000000000000000D+00 0.000000000000000D+00
 0.000000000000000D+00 0.000000000000000D+00
 0.000000000000000D+00 0.000000000000000D+00
 0.000000000000000D+00 0.000000000000000D+00
 0.000000000000000D+00 0.000000000000000D+00
 0.000000000000000D+00 0.000000000000000D+00
 0.000000000000000D+00 0.000000000000000D+00
 0.000000000000000D+00 0.000000000000000D+00
 0.000000000000000D+00 0.000000000000000D+00
 0.000000000000000D+00 0.000000000000000D+00
 0.000000000000000D+00 0.000000000000000D+00
 0.000000000000000D+00 0.000000000000000D+00
 0.000000000000000D+00 0.000000000000000D+00
 0.000000000000000D+00 0.000000000000000D+00
 0.000000000000000D+00 0.000000000000000D+00
 0.000000000000000D+00 0.000000000000000D+00
 0.000000000000000D+00 0.000000000000000D+00
 0.000000000000000D+00 0.000000000000000D+00
 0.000000000000000D+00 0.000000000000000D+00
 0.000000000000000D+00 0.000000000000000D+00
 0.000000000000000D+00 0.000000000000000D+00
 0.000000000000000D+00 0.000000000000000D+00
 0.000000000000000D+00 0.000000000000000D+00
 0.000000000000000D+00 0.000000000000000D+00
 0.000000000000000D+00 0.000000000000000D+00
 0.000000000000000D+00 0.000000000000000D+00
 0.000000000000000D+00 0.000000000000000D+00
 0.000000000000000D+00 0.000000000000000D+00
 0.000000000000000D+00 0.000000000000000D+00
 0.000000000000000D+00 0.000000000000000D+00
 0.000000000000000D+00 0.000000000000000D+00
 0.000000000000000D+00 0.000000000000000D+00
 0.000000000000000D+00 0.000000000000000D+00
 0.000000000000000D+00 0.000000000000000D+00
 0.000000000000000D+00 0.000000000000000D+00
 0.000000000000000D+00 0.000000000000000D+00
 0.000000000000000D+00 0.000000000000000D+00
 0.000000000000000D+00 0.000000000000000D+00
 0.000000000000000D+00 0.000000000000000D+00
 0.000000000000000D+00 0.000000000000000D+00
 0.000000000000000D+00 0.000000000000000D+00
 0.000000000000000D+00 0.000000000000000D+00
 0.000000000000000D+00 0.000000000000000D+00
 0.000000000000000D+00 0.000000000000000D+00
 0.000000000000000D+00 0.000000000000000D+00
 0.000000000000000D+00 0.000000000000000D+00
 0.000000000000000D+00 0.000000000000000D+00
 0.000000000000000D+00 0.000000000000000D+00
 0.000000000000000D+00 0.000000000000000D+00
-0.593214773944980D+01 0.229757943898918D+01
 0.000000000000000D+00 0.000000000000000D+00
 0.000000000000000D+00 0.000000000000000D+00
 0.000000000000000D+00 0.000000000000000D+00
 0.000000000000000D+00 0.000000000000000D+00
 0.000000000000000D+00 0.000000000000000D+00
 0.000000000000000D+00 0.000000000000000D+00
 0.000000000000000D+00 0.000000000000000D+00
 0.000000000000000D+00 0.000000000000000D+00
 0.000000000000000D+00 0.000000000000000D+00
 0.000000000000000D+00 0.000000000000000D+00
 0.000000000000000D+00 0.000000000000000D+00
 0.000000000000000D+00 0.000000000000000D+00
 0.000000000000000D+00 0.000000000000000D+00
 0.000000000000000D+00 0.000000000000000D+00
 0.000000000000000D+00 0.000000000000000D+00
 0.000000000000000D+00 0.000000000000000D+00
 0.000000000000000D+00 0.000000000000000D+00
 0.000000000000000D+00 0.000000000000000D+00
 0.000000000000000D+00 0.000000000000000D+00
 0.000000000000000D+00 0.000000000000000D+00
 0.000000000000000D+00 0.000000000000000D+00
 0.000000000000000D+00 0.000000000000000D+00
 0.000000000000000D+00 0.000000000000000D+00
 0.000000000000000D+00 0.000000000000000D+00
 0.000000000000000D+00 0.000000000000000D+00
 0.000000000000000D+00 0.000000000000000D+00
 0.000000000000000D+00 0.000000000000000D+00
 0.000000000000000D+00 0.000000000000000D+00
 0.000000000000000D+00 0.000000000000000D+00
 0.000000000000000D+00 0.000000000000000D+00
 0.000000000000000D+00 0.000000000000000D+00
 0.000000000000000D+00 0.000000000000000D+00
 0.000000000000000D+00 0.000000000000000D+00
 0.000000000000000D+00 0.000000000000000D+00
 0.000000000000000D+00 0.000000000000000D+00
 0.000000000000000D+00 0.000000000000000D+00
 0.000000000000000D+00 0.000000000000000D+00
 0.000000000000000D+00 0.000000000000000D+00
 0.000000000000000D+00 0.000000000000000D+00
 0.000000000000000D+00 0.000000000000000D+00
 0.000000000000000D+00 0.000000000000000D+00
 0.000000000000000D+00 0.000000000000000D+00
 0.000000000000000D+00 0.000000000000000D+00
 0.000000000000000D+00 0.000000000000000D+00
 0.000000000000000D+00 0.000000000000000D+00
 0.000000000000000D+00 0.000000000000000D+00
 0.000000000000000D+00 0.000000000000000D+00
 0.000000000000000D+00 0.000000000000000D+00
 0.000000000000000D+00 0.000000000000000D+00
 0.000000000000000D+00 0.000000000000000D+00
 0.000000000000000D+00 0.000000000000000D+00
 0.000000000000000D+00 0.000000000000000D+00
 0.000000000000000D+00 0.000000000000000D+00
 0.000000000000000D+00 0.000000000000000D+00
 0.000000000000000D+00 0.000000000000000D+00
 0.000000000000000D+00 0.000000000000000D+00
 0.000000000000000D+00 0.000000000000000D+00
 0.000000000000000D+00 0.000000000000000D+00
 0.000000000000000D+00 0.000000000000000D+00
-0.186037391183163D+00-0.187816020229061D+05 0.854129868777040D+07
-0.157709173234466D+02 0.318877678373898D+04 0.457799385086696D+07
-0.104288919924602D+02 0.320812108854440D+05 0.283406425457139D+07
 0.118065608493453D+00 0.858603383846341D+04 0.370942102717956D+07
 0.100087565109909D+02-0.595898982312433D+04 0.200652536986436D+07
 0.661852690564638D+01-0.210206074090612D+05 0.119233661025232D+07
-0.333817514375596D-01 0.331572773527556D+03 0.217097334978579D+06
-0.282986575272162D+01-0.963120964838574D+03 0.115446204754339D+06
-0.187131564277615D+01 0.671201047203158D+03 0.632121680302919D+05
-0.209894450522206D+03-0.102085027884758D+07 0.341261016503395D+09
 0.111405031333158D+03 0.516636836145671D+04 0.111699170304245D+09
 0.330774873048695D+02 0.180698439933240D+05 0.147300142805550D+09
 0.111341161088055D+03 0.487041779484250D+04 0.111697736310479D+09
-0.298803525915644D+03-0.101598591601502D+07 0.396080187796213D+09
 0.805189419400526D+02 0.146529251410458D+05 0.186956611895834D+09
 0.330153962139827D+02 0.173644350668332D+05 0.147294112580335D+09
 0.805558829541126D+02 0.149680846822169D+05 0.186957134599336D+09
 0.742936531959059D+02-0.102039435225487D+07 0.809652752356014D+09
 0.000000000000000D+00 0.000000000000000D+00 0.000000000000000D+00
 0.000000000000000D+00 0.000000000000000D+00 0.000000000000000D+00
 0.000000000000000D+00 0.000000000000000D+00 0.000000000000000D+00
 0.000000000000000D+00 0.000000000000000D+00 0.000000000000000D+00
 0.000000000000000D+00 0.000000000000000D+00 0.000000000000000D+00
 0.000000000000000D+00 0.000000000000000D+00 0.000000000000000D+00
 0.000000000000000D+00 0.000000000000000D+00 0.000000000000000D+00
 0.000000000000000D+00 0.000000000000000D+00 0.000000000000000D+00
 0.000000000000000D+00 0.000000000000000D+00 0.000000000000000D+00
 0.000000000000000D+00 0.000000000000000D+00 0.000000000000000D+00
 0.000000000000000D+00 0.000000000000000D+00 0.000000000000000D+00
 0.000000000000000D+00 0.000000000000000D+00 0.000000000000000D+00
 0.000000000000000D+00 0.000000000000000D+00 0.000000000000000D+00
 0.000000000000000D+00 0.000000000000000D+00 0.000000000000000D+00
 0.000000000000000D+00 0.000000000000000D+00 0.000000000000000D+00
 0.000000000000000D+00 0.000000000000000D+00 0.000000000000000D+00
 0.000000000000000D+00 0.000000000000000D+00 0.000000000000000D+00
 0.000000000000000D+00 0.000000000000000D+00 0.000000000000000D+00
 0.000000000000000D+00 0.000000000000000D+00 0.000000000000000D+00
 0.000000000000000D+00 0.000000000000000D+00 0.000000000000000D+00
 0.000000000000000D+00 0.000000000000000D+00 0.000000000000000D+00
 0.000000000000000D+00 0.000000000000000D+00 0.000000000000000D+00
 0.000000000000000D+00 0.000000000000000D+00 0.000000000000000D+00
 0.000000000000000D+00 0.000000000000000D+00 0.000000000000000D+00
 0.000000000000000D+00 0.000000000000000D+00 0.000000000000000D+00
 0.000000000000000D+00 0.000000000000000D+00 0.000000000000000D+00
 0.000000000000000D+00 0.000000000000000D+00 0.000000000000000D+00
 0.000000000000000D+00 0.000000000000000D+00 0.000000000000000D+00
 0.000000000000000D+00 0.000000000000000D+00 0.000000000000000D+00
 0.000000000000000D+00 0.000000000000000D+00 0.000000000000000D+00
 0.000000000000000D+00 0.000000000000000D+00 0.000000000000000D+00
 0.000000000000000D+00 0.000000000000000D+00 0.000000000000000D+00
-0.187816020229061D+01 0.291650884283174D+02
 0.318877678373898D+00 0.213938706669207D+02
 0.320812108854440D+01 0.165261727129537D+02
 0.858603383846340D+00 0.192407095229673D+02
-0.595898982312433D+00 0.141526478578856D+02
-0.210206074090612D+01 0.107151762312513D+02
 0.331572773527556D-01 0.465925252511779D+01
-0.963120964838574D-01 0.339637224925431D+01
 0.671201047203158D-01 0.251330692406867D+01
-0.102085027884758D+03 0.153963465575790D+03
 0.516636836145671D+00 0.105686565450884D+03
 0.180698439933240D+01 0.121353817772395D+03
 0.487041779484250D+00 0.105686027559715D+03
-0.101598591601503D+03 0.171130783216265D+03
 0.146529251410458D+01 0.136724226483208D+03
 0.173644350668332D+01 0.121352363067151D+03
 0.149680846822169D+01 0.136724076242420D+03
-0.102039435225487D+03 0.265618577841357D+03
 0.000000000000000D+00 0.000000000000000D+00
 0.000000000000000D+00 0.000000000000000D+00
 0.000000000000000D+00 0.000000000000000D+00
 0.000000000000000D+00 0.000000000000000D+00
 0.000000000000000D+00 0.000000000000000D+00
 0.000000000000000D+00 0.000000000000000D+00
 0.000000000000000D+00 0.000000000000000D+00
 0.000000000000000D+00 0.000000000000000D+00
 0.000000000000000D+00 0.000000000000000D+00
 0.000000000000000D+00 0.000000000000000D+00
 0.000000000000000D+00 0.000000000000000D+00
 0.000000000000000D+00 0.000000000000000D+00
 0.000000000000000D+00 0.000000000000000D+00
 0.000000000000000D+00 0.000000000000000D+00
 0.000000000000000D+00 0.000000000000000D+00
 0.000000000000000D+00 0.000000000000000D+00
 0.000000000000000D+00 0.000000000000000D+00
 0.000000000000000D+00 0.000000000000000D+00
 0.000000000000000D+00 0.000000000000000D+00
 0.000000000000000D+00 0.000000000000000D+00
 0.000000000000000D+00 0.000000000000000D+00
 0.000000000000000D+00 0.000000000000000D+00
 0.000000000000000D+00 0.000000000000000D+00
 0.000000000000000D+00 0.000000000000000D+00
 0.000000000000000D+00 0.000000000000000D+00
 0.000000000000000D+00 0.000000000000000D+00
 0.000000000000000D+00 0.000000000000000D+00
 0.000000000000000D+00 0.000000000000000D+00
 0.000000000000000D+00 0.000000000000000D+00
 0.000000000000000D+00 0.000000000000000D+00
 0.000000000000000D+00 0.000000000000000D+00
 0.000000000000000D+00 0.000000000000000D+00

 !XOLD, YOLD, ZOLD
 0.192297685620919D+02-0.120568829924048D+02 0.663879021781498D+01
 0.193249293542606D+02-0.109588278132750D+02 0.677857703451911D+01
 0.201297788549965D+02-0.127015367609689D+02 0.673219252690603D+01
 0.185206825299483D+02-0.125424855323334D+02 0.734285609182239D+01
 0.186274790846314D+02-0.122731212192580D+02 0.534680486477857D+01
 0.180898321972085D+02-0.133296985347135D+02 0.511491637444116D+01
 0.186178414236619D+02-0.112318920762396D+02 0.448079129926111D+01
 0.188749287191703D+02-0.103430815838226D+02 0.485218396205815D+01
 0.178844710873085D+02-0.113500890765945D+02 0.320911277369201D+01
 0.175360808606120D+02-0.123600353738736D+02 0.305089543397770D+01
 0.166881779525220D+02-0.102820199068074D+02 0.319956604775820D+01
 0.159805699080491D+02-0.103165508490670D+02 0.405538113843304D+01
 0.170823593891050D+02-0.924330664545925D+01 0.320372449117332D+01
 0.160408736050895D+02-0.104378619955533D+02 0.231016659042937D+01
 0.187938553470504D+02-0.110376999874919D+02 0.207857895429153D+01
 0.183666188259870D+02-0.108246273243918D+02 0.977644374061484D+00
 0.201273880251297D+02-0.110837040885381D+02 0.221079022460797D+01
 0.205204780567765D+02-0.112828903836270D+02 0.310511345866408D+01
 0.210138850744028D+02-0.109281496501448D+02 0.113468357386630D+01
 0.208416500505697D+02-0.992455556313409D+01 0.774775243377046D+00
 0.225218539718106D+02-0.109572702261322D+02 0.160454566747633D+01
 0.228979666719646D+02-0.119514017187400D+02 0.192790740331581D+01
 0.231544867115941D+02-0.104882552700167D+02 0.820885519885163D+00
 0.224725101033269D+02-0.102820880275412D+02 0.248546305264414D+01
 0.209212385032446D+02-0.118009363823111D+02-0.100353068196815D+00
 0.210554054570110D+02-0.112961628939314D+02-0.119230235740889D+01
 0.207428434811772D+02-0.131363746882481D+02 0.528558428706822D-01
 0.206200407802295D+02-0.134815054671194D+02 0.980117042295734D+00
 0.207592505990479D+02-0.141317015886376D+02-0.977757725774259D+00
 0.216983634366264D+02-0.141841832016209D+02-0.150852392688282D+01
 0.206241720975800D+02-0.155309129519000D+02-0.201136709749466D+00
 0.206203373624528D+02-0.163387819659660D+02-0.963799119286147D+00
 0.215541094882737D+02-0.154927489475645D+02 0.405560117777395D+00
 0.193995393797402D+02-0.158181429289224D+02 0.833333326971158D+00
 0.184529875965452D+02-0.158873386523173D+02 0.255775544729854D+00
 0.195103297557629D+02-0.167717239682985D+02 0.139255572812317D+01
 0.190525406751563D+02-0.147130857775093D+02 0.182713128248856D+01