REST    45     1                

       2 !NTITLE followed by title
* TITLE                                                                         
*  DATE:     1/22/21     21:12:14      CREATED BY USER: ping                    

 !NATOM,NPRIV,NSTEP,NSAVC,NSAVV,JHSTRT,NDEGF,SEED,NSAVL
         180        6000        1000        1000           0        6000         451 0.100000000000000D+01           0                     1                     4             885105242            1786989663              66374731            1076472096

 !ENERGIES and STATISTICS
TTTTTTTTTTTTTTTTTTTTTTTTTTTTTTTTTTTTTTTTTTTTTTTTTTTTTTTTTTTT
TTTTTTTTTTTTTTTTTTTTTTTTTTTTTTTTTTTTTTTTTTTTTTTTTTTTTTTTTTTTTTTTTTTTTTTTTTTTTTTTTTTTTTTTTTTTTTTTTTTTTTTTTTTTTTTTTTTTTTTTTTTTTTTT
       0 0.967499317191655D+08 0.347187942283967D+10 0.307227594050429D+03
 0.189270743172542D+03 0.114585123722677D+07 0.218875169937005D+09
 0.140018329080739D+03 0.826033438025244D+06 0.114000562048480D+09
 0.492524140918030D+02 0.319817799201524D+06 0.173437547428009D+08
 0.312463096912465D+03 0.184336556430257D+07 0.567720631167261D+09
 0.186224302727296D+02 0.115873915578860D+06 0.224363855067658D+07
 0.000000000000000D+00 0.000000000000000D+00 0.000000000000000D+00
 0.000000000000000D+00 0.000000000000000D+00 0.000000000000000D+00
 0.000000000000000D+00 0.000000000000000D+00 0.000000000000000D+00
 0.000000000000000D+00 0.000000000000000D+00 0.000000000000000D+00
 0.000000000000000D+00 0.000000000000000D+00 0.000000000000000D+00
 0.191393555617015D+03 0.115612161253547D+07 0.222815631066621D+09
 0.145034867245989D+03 0.856841559835008D+06 0.122623798231354D+09
 0.212281244447294D+01 0.102703753087063D+05 0.184470944585700D+05
 0.000000000000000D+00 0.000000000000000D+00 0.000000000000000D+00
 0.000000000000000D+00 0.000000000000000D+00 0.000000000000000D+00
 0.000000000000000D+00 0.000000000000000D+00 0.000000000000000D+00
 0.000000000000000D+00 0.000000000000000D+00 0.000000000000000D+00
-0.601979921113559D+02-0.559447400930937D+06 0.151874944023719D+09
-0.100058202387150D+02-0.125751964950373D+05 0.482614180656772D+06
 0.105305718525106D+03 0.858033896138961D+06 0.348110333964641D+09
 0.191393555617015D+03 0.115612161253547D+07 0.222815631066621D+09
 0.492524140918030D+02 0.319817799201524D+06 0.173437547428009D+08
 0.146626240462223D+03 0.856839496471233D+06 0.122663003960544D+09
 0.143443494029755D+03 0.856843623198784D+06 0.122664231163516D+09
 0.000000000000000D+00 0.000000000000000D+00 0.000000000000000D+00
 0.000000000000000D+00 0.000000000000000D+00 0.000000000000000D+00
 0.000000000000000D+00 0.000000000000000D+00 0.000000000000000D+00
 0.000000000000000D+00 0.000000000000000D+00 0.000000000000000D+00
 0.000000000000000D+00 0.000000000000000D+00 0.000000000000000D+00
 0.000000000000000D+00 0.000000000000000D+00 0.000000000000000D+00
 0.000000000000000D+00 0.000000000000000D+00 0.000000000000000D+00
 0.000000000000000D+00 0.000000000000000D+00 0.000000000000000D+00
 0.000000000000000D+00 0.000000000000000D+00 0.000000000000000D+00
 0.000000000000000D+00 0.000000000000000D+00 0.000000000000000D+00
 0.000000000000000D+00 0.000000000000000D+00 0.000000000000000D+00
 0.000000000000000D+00 0.000000000000000D+00 0.000000000000000D+00
 0.000000000000000D+00 0.000000000000000D+00 0.000000000000000D+00
 0.000000000000000D+00 0.000000000000000D+00 0.000000000000000D+00
 0.000000000000000D+00 0.000000000000000D+00 0.000000000000000D+00
 0.000000000000000D+00 0.000000000000000D+00 0.000000000000000D+00
 0.000000000000000D+00 0.000000000000000D+00 0.000000000000000D+00
 0.000000000000000D+00 0.000000000000000D+00 0.000000000000000D+00
 0.000000000000000D+00 0.000000000000000D+00 0.000000000000000D+00
 0.000000000000000D+00 0.000000000000000D+00 0.000000000000000D+00
 0.000000000000000D+00 0.000000000000000D+00 0.000000000000000D+00
 0.000000000000000D+00 0.000000000000000D+00 0.000000000000000D+00
 0.000000000000000D+00 0.000000000000000D+00 0.000000000000000D+00
 0.000000000000000D+00 0.000000000000000D+00 0.000000000000000D+00
 0.000000000000000D+00 0.000000000000000D+00 0.000000000000000D+00
 0.000000000000000D+00 0.000000000000000D+00 0.000000000000000D+00
 0.000000000000000D+00 0.000000000000000D+00 0.000000000000000D+00
 0.000000000000000D+00 0.000000000000000D+00 0.000000000000000D+00
 0.000000000000000D+00 0.000000000000000D+00 0.000000000000000D+00
 0.000000000000000D+00 0.000000000000000D+00 0.000000000000000D+00
 0.000000000000000D+00 0.000000000000000D+00 0.000000000000000D+00
 0.000000000000000D+00 0.000000000000000D+00 0.000000000000000D+00
 0.000000000000000D+00 0.000000000000000D+00 0.000000000000000D+00
 0.000000000000000D+00 0.000000000000000D+00 0.000000000000000D+00
 0.000000000000000D+00 0.000000000000000D+00 0.000000000000000D+00
 0.000000000000000D+00 0.000000000000000D+00 0.000000000000000D+00
 0.190975206204461D+03 0.276868283924952D+01
 0.137672239670874D+03 0.681528420185689D+01
 0.533029665335873D+02 0.702990392438556D+01
 0.307227594050429D+03 0.152089003063505D+02
 0.193123192631433D+02 0.986956495758526D+00
 0.000000000000000D+00 0.000000000000000D+00
 0.000000000000000D+00 0.000000000000000D+00
 0.000000000000000D+00 0.000000000000000D+00
 0.000000000000000D+00 0.000000000000000D+00
 0.000000000000000D+00 0.000000000000000D+00
 0.192686935422579D+03 0.277189981031275D+01
 0.142806926639168D+03 0.659404345610307D+01
 0.171172921811772D+01 0.380130013202200D+00
 0.000000000000000D+00 0.000000000000000D+00
 0.000000000000000D+00 0.000000000000000D+00
 0.000000000000000D+00 0.000000000000000D+00
 0.000000000000000D+00 0.000000000000000D+00
-0.932412334884894D+02 0.128913005737066D+03
-0.209586608250622D+01 0.872026617370873D+01
 0.143005649356494D+03 0.193824078086894D+03
 0.192686935422579D+03 0.277189981031275D+01
 0.533029665335873D+02 0.702990392438556D+01
 0.142806582745205D+03 0.707911845223354D+01
 0.142807270533131D+03 0.707968997413963D+01
 0.000000000000000D+00 0.000000000000000D+00
 0.000000000000000D+00 0.000000000000000D+00
 0.000000000000000D+00 0.000000000000000D+00
 0.000000000000000D+00 0.000000000000000D+00
 0.000000000000000D+00 0.000000000000000D+00
 0.000000000000000D+00 0.000000000000000D+00
 0.000000000000000D+00 0.000000000000000D+00
 0.000000000000000D+00 0.000000000000000D+00
 0.000000000000000D+00 0.000000000000000D+00
 0.000000000000000D+00 0.000000000000000D+00
 0.000000000000000D+00 0.000000000000000D+00
 0.000000000000000D+00 0.000000000000000D+00
 0.000000000000000D+00 0.000000000000000D+00
 0.000000000000000D+00 0.000000000000000D+00
 0.000000000000000D+00 0.000000000000000D+00
 0.000000000000000D+00 0.000000000000000D+00
 0.000000000000000D+00 0.000000000000000D+00
 0.000000000000000D+00 0.000000000000000D+00
 0.000000000000000D+00 0.000000000000000D+00
 0.000000000000000D+00 0.000000000000000D+00
 0.000000000000000D+00 0.000000000000000D+00
 0.000000000000000D+00 0.000000000000000D+00
 0.000000000000000D+00 0.000000000000000D+00
 0.000000000000000D+00 0.000000000000000D+00
 0.000000000000000D+00 0.000000000000000D+00
 0.000000000000000D+00 0.000000000000000D+00
 0.000000000000000D+00 0.000000000000000D+00
 0.000000000000000D+00 0.000000000000000D+00
 0.000000000000000D+00 0.000000000000000D+00
 0.000000000000000D+00 0.000000000000000D+00
 0.000000000000000D+00 0.000000000000000D+00
 0.000000000000000D+00 0.000000000000000D+00
 0.000000000000000D+00 0.000000000000000D+00
 0.000000000000000D+00 0.000000000000000D+00
 0.000000000000000D+00 0.000000000000000D+00
 0.000000000000000D+00 0.000000000000000D+00
 0.385845180657855D+02 0.223817521803593D+06 0.849387912084629D+07
 0.104612982061685D+03 0.606830655016205D+06 0.617126481104414D+08
 0.140188629900384D+02 0.684666265566603D+05 0.796613184901275D+06
 0.743857759701276D+02 0.492684616537937D+06 0.405053962009874D+08
 0.883154692250672D+01 0.523905732840168D+05 0.480488528116375D+06
-0.303954947190165D+02-0.157021066828395D+06 0.421653906449194D+07
-0.154578834377098D+03-0.944129012411464D+06 0.148873283478623D+09
 0.000000000000000D+00 0.000000000000000D+00 0.000000000000000D+00
 0.000000000000000D+00 0.000000000000000D+00 0.000000000000000D+00
 0.515024473709229D+00 0.549857897292208D+04 0.721907403487117D+04
 0.000000000000000D+00 0.000000000000000D+00 0.000000000000000D+00
 0.000000000000000D+00 0.000000000000000D+00 0.000000000000000D+00
 0.000000000000000D+00 0.000000000000000D+00 0.000000000000000D+00
 0.000000000000000D+00 0.000000000000000D+00 0.000000000000000D+00
 0.000000000000000D+00 0.000000000000000D+00 0.000000000000000D+00
 0.000000000000000D+00 0.000000000000000D+00 0.000000000000000D+00
 0.000000000000000D+00 0.000000000000000D+00 0.000000000000000D+00
 0.000000000000000D+00 0.000000000000000D+00 0.000000000000000D+00
 0.000000000000000D+00 0.000000000000000D+00 0.000000000000000D+00
 0.000000000000000D+00 0.000000000000000D+00 0.000000000000000D+00
 0.000000000000000D+00 0.000000000000000D+00 0.000000000000000D+00
 0.000000000000000D+00 0.000000000000000D+00 0.000000000000000D+00
 0.000000000000000D+00 0.000000000000000D+00 0.000000000000000D+00
 0.000000000000000D+00 0.000000000000000D+00 0.000000000000000D+00
 0.000000000000000D+00 0.000000000000000D+00 0.000000000000000D+00
 0.000000000000000D+00 0.000000000000000D+00 0.000000000000000D+00
 0.000000000000000D+00 0.000000000000000D+00 0.000000000000000D+00
 0.000000000000000D+00 0.000000000000000D+00 0.000000000000000D+00
 0.000000000000000D+00 0.000000000000000D+00 0.000000000000000D+00
 0.000000000000000D+00 0.000000000000000D+00 0.000000000000000D+00
 0.000000000000000D+00 0.000000000000000D+00 0.000000000000000D+00
 0.000000000000000D+00 0.000000000000000D+00 0.000000000000000D+00
 0.000000000000000D+00 0.000000000000000D+00 0.000000000000000D+00
 0.000000000000000D+00 0.000000000000000D+00 0.000000000000000D+00
 0.000000000000000D+00 0.000000000000000D+00 0.000000000000000D+00
 0.000000000000000D+00 0.000000000000000D+00 0.000000000000000D+00
 0.000000000000000D+00 0.000000000000000D+00 0.000000000000000D+00
 0.000000000000000D+00 0.000000000000000D+00 0.000000000000000D+00
 0.000000000000000D+00 0.000000000000000D+00 0.000000000000000D+00
 0.000000000000000D+00 0.000000000000000D+00 0.000000000000000D+00
 0.000000000000000D+00 0.000000000000000D+00 0.000000000000000D+00
 0.000000000000000D+00 0.000000000000000D+00 0.000000000000000D+00
 0.000000000000000D+00 0.000000000000000D+00 0.000000000000000D+00
 0.000000000000000D+00 0.000000000000000D+00 0.000000000000000D+00
 0.000000000000000D+00 0.000000000000000D+00 0.000000000000000D+00
 0.000000000000000D+00 0.000000000000000D+00 0.000000000000000D+00
 0.000000000000000D+00 0.000000000000000D+00 0.000000000000000D+00
 0.000000000000000D+00 0.000000000000000D+00 0.000000000000000D+00
 0.000000000000000D+00 0.000000000000000D+00 0.000000000000000D+00
 0.000000000000000D+00 0.000000000000000D+00 0.000000000000000D+00
 0.000000000000000D+00 0.000000000000000D+00 0.000000000000000D+00
 0.000000000000000D+00 0.000000000000000D+00 0.000000000000000D+00
 0.000000000000000D+00 0.000000000000000D+00 0.000000000000000D+00
 0.000000000000000D+00 0.000000000000000D+00 0.000000000000000D+00
 0.000000000000000D+00 0.000000000000000D+00 0.000000000000000D+00
 0.000000000000000D+00 0.000000000000000D+00 0.000000000000000D+00
 0.000000000000000D+00 0.000000000000000D+00 0.000000000000000D+00
 0.000000000000000D+00 0.000000000000000D+00 0.000000000000000D+00
 0.000000000000000D+00 0.000000000000000D+00 0.000000000000000D+00
 0.000000000000000D+00 0.000000000000000D+00 0.000000000000000D+00
 0.000000000000000D+00 0.000000000000000D+00 0.000000000000000D+00
 0.000000000000000D+00 0.000000000000000D+00 0.000000000000000D+00
 0.000000000000000D+00 0.000000000000000D+00 0.000000000000000D+00
 0.000000000000000D+00 0.000000000000000D+00 0.000000000000000D+00
 0.000000000000000D+00 0.000000000000000D+00 0.000000000000000D+00
 0.000000000000000D+00 0.000000000000000D+00 0.000000000000000D+00
 0.000000000000000D+00 0.000000000000000D+00 0.000000000000000D+00
 0.000000000000000D+00 0.000000000000000D+00 0.000000000000000D+00
-0.672196729593479D+01-0.287206937299525D+05 0.164608665850022D+06
 0.000000000000000D+00 0.000000000000000D+00 0.000000000000000D+00
 0.000000000000000D+00 0.000000000000000D+00 0.000000000000000D+00
 0.000000000000000D+00 0.000000000000000D+00 0.000000000000000D+00
 0.000000000000000D+00 0.000000000000000D+00 0.000000000000000D+00
 0.000000000000000D+00 0.000000000000000D+00 0.000000000000000D+00
 0.000000000000000D+00 0.000000000000000D+00 0.000000000000000D+00
 0.000000000000000D+00 0.000000000000000D+00 0.000000000000000D+00
 0.000000000000000D+00 0.000000000000000D+00 0.000000000000000D+00
 0.000000000000000D+00 0.000000000000000D+00 0.000000000000000D+00
 0.000000000000000D+00 0.000000000000000D+00 0.000000000000000D+00
 0.000000000000000D+00 0.000000000000000D+00 0.000000000000000D+00
 0.000000000000000D+00 0.000000000000000D+00 0.000000000000000D+00
 0.000000000000000D+00 0.000000000000000D+00 0.000000000000000D+00
 0.000000000000000D+00 0.000000000000000D+00 0.000000000000000D+00
 0.000000000000000D+00 0.000000000000000D+00 0.000000000000000D+00
 0.000000000000000D+00 0.000000000000000D+00 0.000000000000000D+00
 0.000000000000000D+00 0.000000000000000D+00 0.000000000000000D+00
 0.000000000000000D+00 0.000000000000000D+00 0.000000000000000D+00
 0.000000000000000D+00 0.000000000000000D+00 0.000000000000000D+00
 0.000000000000000D+00 0.000000000000000D+00 0.000000000000000D+00
 0.000000000000000D+00 0.000000000000000D+00 0.000000000000000D+00
 0.000000000000000D+00 0.000000000000000D+00 0.000000000000000D+00
 0.000000000000000D+00 0.000000000000000D+00 0.000000000000000D+00
 0.000000000000000D+00 0.000000000000000D+00 0.000000000000000D+00
 0.000000000000000D+00 0.000000000000000D+00 0.000000000000000D+00
 0.000000000000000D+00 0.000000000000000D+00 0.000000000000000D+00
 0.000000000000000D+00 0.000000000000000D+00 0.000000000000000D+00
 0.000000000000000D+00 0.000000000000000D+00 0.000000000000000D+00
 0.000000000000000D+00 0.000000000000000D+00 0.000000000000000D+00
 0.000000000000000D+00 0.000000000000000D+00 0.000000000000000D+00
 0.000000000000000D+00 0.000000000000000D+00 0.000000000000000D+00
 0.000000000000000D+00 0.000000000000000D+00 0.000000000000000D+00
 0.000000000000000D+00 0.000000000000000D+00 0.000000000000000D+00
 0.000000000000000D+00 0.000000000000000D+00 0.000000000000000D+00
 0.000000000000000D+00 0.000000000000000D+00 0.000000000000000D+00
 0.000000000000000D+00 0.000000000000000D+00 0.000000000000000D+00
 0.000000000000000D+00 0.000000000000000D+00 0.000000000000000D+00
 0.000000000000000D+00 0.000000000000000D+00 0.000000000000000D+00
 0.000000000000000D+00 0.000000000000000D+00 0.000000000000000D+00
 0.000000000000000D+00 0.000000000000000D+00 0.000000000000000D+00
 0.000000000000000D+00 0.000000000000000D+00 0.000000000000000D+00
 0.000000000000000D+00 0.000000000000000D+00 0.000000000000000D+00
 0.000000000000000D+00 0.000000000000000D+00 0.000000000000000D+00
 0.000000000000000D+00 0.000000000000000D+00 0.000000000000000D+00
 0.000000000000000D+00 0.000000000000000D+00 0.000000000000000D+00
 0.000000000000000D+00 0.000000000000000D+00 0.000000000000000D+00
 0.000000000000000D+00 0.000000000000000D+00 0.000000000000000D+00
 0.000000000000000D+00 0.000000000000000D+00 0.000000000000000D+00
 0.000000000000000D+00 0.000000000000000D+00 0.000000000000000D+00
 0.000000000000000D+00 0.000000000000000D+00 0.000000000000000D+00
 0.000000000000000D+00 0.000000000000000D+00 0.000000000000000D+00
 0.000000000000000D+00 0.000000000000000D+00 0.000000000000000D+00
 0.000000000000000D+00 0.000000000000000D+00 0.000000000000000D+00
 0.000000000000000D+00 0.000000000000000D+00 0.000000000000000D+00
 0.000000000000000D+00 0.000000000000000D+00 0.000000000000000D+00
 0.000000000000000D+00 0.000000000000000D+00 0.000000000000000D+00
 0.000000000000000D+00 0.000000000000000D+00 0.000000000000000D+00
 0.000000000000000D+00 0.000000000000000D+00 0.000000000000000D+00
 0.000000000000000D+00 0.000000000000000D+00 0.000000000000000D+00
 0.373029203005989D+02 0.491311074455016D+01
 0.101138442502701D+03 0.751377400965076D+01
 0.114111044261101D+02 0.159861187491646D+01
 0.821141027563229D+02 0.285893255521747D+01
 0.873176221400281D+01 0.195901760860949D+01
-0.261701778047324D+02 0.422827440185085D+01
-0.157354835401911D+03 0.718816309925675D+01
 0.000000000000000D+00 0.000000000000000D+00
 0.000000000000000D+00 0.000000000000000D+00
 0.916429828820346D+00 0.602773070616275D+00
 0.000000000000000D+00 0.000000000000000D+00
 0.000000000000000D+00 0.000000000000000D+00
 0.000000000000000D+00 0.000000000000000D+00
 0.000000000000000D+00 0.000000000000000D+00
 0.000000000000000D+00 0.000000000000000D+00
 0.000000000000000D+00 0.000000000000000D+00
 0.000000000000000D+00 0.000000000000000D+00
 0.000000000000000D+00 0.000000000000000D+00
 0.000000000000000D+00 0.000000000000000D+00
 0.000000000000000D+00 0.000000000000000D+00
 0.000000000000000D+00 0.000000000000000D+00
 0.000000000000000D+00 0.000000000000000D+00
 0.000000000000000D+00 0.000000000000000D+00
 0.000000000000000D+00 0.000000000000000D+00
 0.000000000000000D+00 0.000000000000000D+00
 0.000000000000000D+00 0.000000000000000D+00
 0.000000000000000D+00 0.000000000000000D+00
 0.000000000000000D+00 0.000000000000000D+00
 0.000000000000000D+00 0.000000000000000D+00
 0.000000000000000D+00 0.000000000000000D+00
 0.000000000000000D+00 0.000000000000000D+00
 0.000000000000000D+00 0.000000000000000D+00
 0.000000000000000D+00 0.000000000000000D+00
 0.000000000000000D+00 0.000000000000000D+00
 0.000000000000000D+00 0.000000000000000D+00
 0.000000000000000D+00 0.000000000000000D+00
 0.000000000000000D+00 0.000000000000000D+00
 0.000000000000000D+00 0.000000000000000D+00
 0.000000000000000D+00 0.000000000000000D+00
 0.000000000000000D+00 0.000000000000000D+00
 0.000000000000000D+00 0.000000000000000D+00
 0.000000000000000D+00 0.000000000000000D+00
 0.000000000000000D+00 0.000000000000000D+00
 0.000000000000000D+00 0.000000000000000D+00
 0.000000000000000D+00 0.000000000000000D+00
 0.000000000000000D+00 0.000000000000000D+00
 0.000000000000000D+00 0.000000000000000D+00
 0.000000000000000D+00 0.000000000000000D+00
 0.000000000000000D+00 0.000000000000000D+00
 0.000000000000000D+00 0.000000000000000D+00
 0.000000000000000D+00 0.000000000000000D+00
 0.000000000000000D+00 0.000000000000000D+00
 0.000000000000000D+00 0.000000000000000D+00
 0.000000000000000D+00 0.000000000000000D+00
 0.000000000000000D+00 0.000000000000000D+00
 0.000000000000000D+00 0.000000000000000D+00
 0.000000000000000D+00 0.000000000000000D+00
 0.000000000000000D+00 0.000000000000000D+00
 0.000000000000000D+00 0.000000000000000D+00
 0.000000000000000D+00 0.000000000000000D+00
 0.000000000000000D+00 0.000000000000000D+00
 0.000000000000000D+00 0.000000000000000D+00
 0.000000000000000D+00 0.000000000000000D+00
 0.000000000000000D+00 0.000000000000000D+00
 0.000000000000000D+00 0.000000000000000D+00
 0.000000000000000D+00 0.000000000000000D+00
 0.000000000000000D+00 0.000000000000000D+00
 0.000000000000000D+00 0.000000000000000D+00
-0.478678228832542D+01 0.212638024958951D+01
 0.000000000000000D+00 0.000000000000000D+00
 0.000000000000000D+00 0.000000000000000D+00
 0.000000000000000D+00 0.000000000000000D+00
 0.000000000000000D+00 0.000000000000000D+00
 0.000000000000000D+00 0.000000000000000D+00
 0.000000000000000D+00 0.000000000000000D+00
 0.000000000000000D+00 0.000000000000000D+00
 0.000000000000000D+00 0.000000000000000D+00
 0.000000000000000D+00 0.000000000000000D+00
 0.000000000000000D+00 0.000000000000000D+00
 0.000000000000000D+00 0.000000000000000D+00
 0.000000000000000D+00 0.000000000000000D+00
 0.000000000000000D+00 0.000000000000000D+00
 0.000000000000000D+00 0.000000000000000D+00
 0.000000000000000D+00 0.000000000000000D+00
 0.000000000000000D+00 0.000000000000000D+00
 0.000000000000000D+00 0.000000000000000D+00
 0.000000000000000D+00 0.000000000000000D+00
 0.000000000000000D+00 0.000000000000000D+00
 0.000000000000000D+00 0.000000000000000D+00
 0.000000000000000D+00 0.000000000000000D+00
 0.000000000000000D+00 0.000000000000000D+00
 0.000000000000000D+00 0.000000000000000D+00
 0.000000000000000D+00 0.000000000000000D+00
 0.000000000000000D+00 0.000000000000000D+00
 0.000000000000000D+00 0.000000000000000D+00
 0.000000000000000D+00 0.000000000000000D+00
 0.000000000000000D+00 0.000000000000000D+00
 0.000000000000000D+00 0.000000000000000D+00
 0.000000000000000D+00 0.000000000000000D+00
 0.000000000000000D+00 0.000000000000000D+00
 0.000000000000000D+00 0.000000000000000D+00
 0.000000000000000D+00 0.000000000000000D+00
 0.000000000000000D+00 0.000000000000000D+00
 0.000000000000000D+00 0.000000000000000D+00
 0.000000000000000D+00 0.000000000000000D+00
 0.000000000000000D+00 0.000000000000000D+00
 0.000000000000000D+00 0.000000000000000D+00
 0.000000000000000D+00 0.000000000000000D+00
 0.000000000000000D+00 0.000000000000000D+00
 0.000000000000000D+00 0.000000000000000D+00
 0.000000000000000D+00 0.000000000000000D+00
 0.000000000000000D+00 0.000000000000000D+00
 0.000000000000000D+00 0.000000000000000D+00
 0.000000000000000D+00 0.000000000000000D+00
 0.000000000000000D+00 0.000000000000000D+00
 0.000000000000000D+00 0.000000000000000D+00
 0.000000000000000D+00 0.000000000000000D+00
 0.000000000000000D+00 0.000000000000000D+00
 0.000000000000000D+00 0.000000000000000D+00
 0.000000000000000D+00 0.000000000000000D+00
 0.000000000000000D+00 0.000000000000000D+00
 0.000000000000000D+00 0.000000000000000D+00
 0.000000000000000D+00 0.000000000000000D+00
 0.000000000000000D+00 0.000000000000000D+00
 0.000000000000000D+00 0.000000000000000D+00
 0.000000000000000D+00 0.000000000000000D+00
 0.000000000000000D+00 0.000000000000000D+00
 0.000000000000000D+00 0.000000000000000D+00
-0.204654567623256D+02-0.407580393084949D+05 0.394875408358636D+07
 0.157273613990061D+02-0.138001431945343D+05 0.701080114194556D+06
 0.582144681328214D+01-0.718873073132937D+04 0.252713219219648D+07
 0.135637093810312D+02 0.237796919874462D+05 0.167392282991573D+07
-0.104234839135996D+02 0.858431405517730D+04 0.287650160732452D+06
-0.385822870554489D+01 0.603818251845077D+04 0.105986453824475D+07
-0.306371182425346D+01-0.261768274653754D+04 0.992781705528435D+05
 0.235441132059873D+01-0.310862688282052D+04 0.219896523407479D+05
 0.871479959780231D+00-0.555186423179437D+04 0.772466958384579D+05
-0.317099491097517D+02-0.548356316165825D+06 0.311871309787647D+09
 0.596332767728173D+02-0.266161000511620D+04 0.659669090202793D+08
-0.384842620614920D+02 0.112886659499768D+05 0.123130721947738D+09
 0.595633641153377D+02-0.288084037531129D+04 0.659663575055272D+08
 0.519630959267938D+02-0.576772373361287D+06 0.195556931314968D+09
 0.972813963778222D+02 0.155628516102040D+04 0.646590697559834D+08
-0.385301993212887D+02 0.110462727216278D+05 0.123128149441464D+09
 0.973179759522418D+02 0.172907282078276D+04 0.646586464446528D+08
-0.200847123151110D+03-0.553213513265701D+06 0.261350936590789D+09
 0.000000000000000D+00 0.000000000000000D+00 0.000000000000000D+00
 0.000000000000000D+00 0.000000000000000D+00 0.000000000000000D+00
 0.000000000000000D+00 0.000000000000000D+00 0.000000000000000D+00
 0.000000000000000D+00 0.000000000000000D+00 0.000000000000000D+00
 0.000000000000000D+00 0.000000000000000D+00 0.000000000000000D+00
 0.000000000000000D+00 0.000000000000000D+00 0.000000000000000D+00
 0.000000000000000D+00 0.000000000000000D+00 0.000000000000000D+00
 0.000000000000000D+00 0.000000000000000D+00 0.000000000000000D+00
 0.000000000000000D+00 0.000000000000000D+00 0.000000000000000D+00
 0.000000000000000D+00 0.000000000000000D+00 0.000000000000000D+00
 0.000000000000000D+00 0.000000000000000D+00 0.000000000000000D+00
 0.000000000000000D+00 0.000000000000000D+00 0.000000000000000D+00
 0.000000000000000D+00 0.000000000000000D+00 0.000000000000000D+00
 0.000000000000000D+00 0.000000000000000D+00 0.000000000000000D+00
 0.000000000000000D+00 0.000000000000000D+00 0.000000000000000D+00
 0.000000000000000D+00 0.000000000000000D+00 0.000000000000000D+00
 0.000000000000000D+00 0.000000000000000D+00 0.000000000000000D+00
 0.000000000000000D+00 0.000000000000000D+00 0.000000000000000D+00
 0.000000000000000D+00 0.000000000000000D+00 0.000000000000000D+00
 0.000000000000000D+00 0.000000000000000D+00 0.000000000000000D+00
 0.000000000000000D+00 0.000000000000000D+00 0.000000000000000D+00
 0.000000000000000D+00 0.000000000000000D+00 0.000000000000000D+00
 0.000000000000000D+00 0.000000000000000D+00 0.000000000000000D+00
 0.000000000000000D+00 0.000000000000000D+00 0.000000000000000D+00
 0.000000000000000D+00 0.000000000000000D+00 0.000000000000000D+00
 0.000000000000000D+00 0.000000000000000D+00 0.000000000000000D+00
 0.000000000000000D+00 0.000000000000000D+00 0.000000000000000D+00
 0.000000000000000D+00 0.000000000000000D+00 0.000000000000000D+00
 0.000000000000000D+00 0.000000000000000D+00 0.000000000000000D+00
 0.000000000000000D+00 0.000000000000000D+00 0.000000000000000D+00
 0.000000000000000D+00 0.000000000000000D+00 0.000000000000000D+00
 0.000000000000000D+00 0.000000000000000D+00 0.000000000000000D+00
-0.679300655141582D+01 0.247382445333162D+02
-0.230002386575572D+01 0.105620346484968D+02
-0.119812178855490D+01 0.204878794139170D+02
 0.396328199790770D+01 0.162258908576494D+02
 0.143071900919622D+01 0.677456541573947D+01
 0.100636375307513D+01 0.132525967909672D+02
-0.436280457756257D+00 0.404425779605940D+01
-0.518104480470086D+00 0.184296223621325D+01
-0.925310705299062D+00 0.346673468916625D+01
-0.913927193609708D+02 0.208868194034136D+03
-0.443601667519366D+00 0.104853650648291D+03
 0.188144432499613D+01 0.143241918300969D+03
-0.480140062551881D+00 0.104853051377193D+03
-0.961287288935478D+02 0.152813904364553D+03
 0.259380860170066D+00 0.103809654404427D+03
 0.184104545360464D+01 0.143240946631477D+03
 0.288178803463794D+00 0.103809238640335D+03
-0.922022522109501D+02 0.187235771472832D+03
 0.000000000000000D+00 0.000000000000000D+00
 0.000000000000000D+00 0.000000000000000D+00
 0.000000000000000D+00 0.000000000000000D+00
 0.000000000000000D+00 0.000000000000000D+00
 0.000000000000000D+00 0.000000000000000D+00
 0.000000000000000D+00 0.000000000000000D+00
 0.000000000000000D+00 0.000000000000000D+00
 0.000000000000000D+00 0.000000000000000D+00
 0.000000000000000D+00 0.000000000000000D+00
 0.000000000000000D+00 0.000000000000000D+00
 0.000000000000000D+00 0.000000000000000D+00
 0.000000000000000D+00 0.000000000000000D+00
 0.000000000000000D+00 0.000000000000000D+00
 0.000000000000000D+00 0.000000000000000D+00
 0.000000000000000D+00 0.000000000000000D+00
 0.000000000000000D+00 0.000000000000000D+00
 0.000000000000000D+00 0.000000000000000D+00
 0.000000000000000D+00 0.000000000000000D+00
 0.000000000000000D+00 0.000000000000000D+00
 0.000000000000000D+00 0.000000000000000D+00
 0.000000000000000D+00 0.000000000000000D+00
 0.000000000000000D+00 0.000000000000000D+00
 0.000000000000000D+00 0.000000000000000D+00
 0.000000000000000D+00 0.000000000000000D+00
 0.000000000000000D+00 0.000000000000000D+00
 0.000000000000000D+00 0.000000000000000D+00
 0.000000000000000D+00 0.000000000000000D+00
 0.000000000000000D+00 0.000000000000000D+00
 0.000000000000000D+00 0.000000000000000D+00
 0.000000000000000D+00 0.000000000000000D+00
 0.000000000000000D+00 0.000000000000000D+00
 0.000000000000000D+00 0.000000000000000D+00

 !XOLD, YOLD, ZOLD
 0.184928713508612D+02-0.997736095276514D+01 0.590080174147546D+01
 0.179795160132283D+02-0.106542453469588D+02 0.661677297989710D+01
 0.181297124863465D+02-0.893426059765297D+01 0.602071859827308D+01
 0.195788280090221D+02-0.996886425565771D+01 0.613520997740652D+01
 0.183258995577951D+02-0.103679111501436D+02 0.449490772647321D+01
 0.177461201700002D+02-0.956778904914800D+01 0.378298297887011D+01
 0.186915426970955D+02-0.115976500165062D+02 0.408670619265452D+01
 0.191398817654274D+02-0.121403230533194D+02 0.479275651305441D+01
 0.184343599730778D+02-0.122175773648224D+02 0.275965336508064D+01
 0.184672970398743D+02-0.114952362760099D+02 0.195744485031057D+01
 0.195754309844843D+02-0.132179307350174D+02 0.244713171110239D+01
 0.205703879918313D+02-0.127275427551313D+02 0.238468998372017D+01
 0.196165300325269D+02-0.138868774577147D+02 0.333321418596921D+01
 0.194994733140578D+02-0.137524862195880D+02 0.147615122537062D+01
 0.170276580678655D+02-0.127854887329539D+02 0.257114630568443D+01
 0.168916984736499D+02-0.137049460875772D+02 0.176688171682235D+01
 0.160098029684954D+02-0.122721386220341D+02 0.321194854752849D+01
 0.162289840978328D+02-0.114386438874248D+02 0.371320320557764D+01
 0.145627495488071D+02-0.126546767318149D+02 0.319072316564383D+01
 0.143916935767451D+02-0.136628387986276D+02 0.353821288043137D+01
 0.137835654111714D+02-0.117261309548052D+02 0.420828333970018D+01
 0.144840819254910D+02-0.115758765039076D+02 0.505741332851721D+01
 0.136042507362490D+02-0.107202479619627D+02 0.377197306908887D+01
 0.128472108937976D+02-0.121791990534739D+02 0.459852989294519D+01
 0.139097464218501D+02-0.126522310174079D+02 0.182729490306682D+01
 0.131864810429877D+02-0.135940080816841D+02 0.149812105876138D+01
 0.140805097971376D+02-0.115098782930203D+02 0.107850156050595D+01
 0.146268728313024D+02-0.107282660840004D+02 0.136932823257009D+01
 0.136111926776402D+02-0.113480578937245D+02-0.276647405566697D+00
 0.125440756104337D+02-0.114503985719166D+02-0.145546107007055D+00
 0.138233794419447D+02-0.987836297878249D+01-0.804253126969776D+00
 0.132081015096726D+02-0.977288786193991D+01-0.172329015880744D+01
 0.132126182763082D+02-0.925178237735159D+01-0.119643656156476D+00
 0.152670514251964D+02-0.943368463953866D+01-0.113217890292966D+01
 0.156003822113228D+02-0.996046612547955D+01-0.205180609085482D+01
 0.151008258736937D+02-0.838399379043836D+01-0.145596770439116D+01
 0.162267987018285D+02-0.967785201611623D+01 0.373901095947806D-01