REST    45     1                

       2 !NTITLE followed by title
* TITLE                                                                         
*  DATE:     1/22/21     21:12:14      CREATED BY USER: ping                    

 !NATOM,NPRIV,NSTEP,NSAVC,NSAVV,JHSTRT,NDEGF,SEED,NSAVL
         180        1000        1000        1000           0        1000         451 0.100000000000000D+01           0                     1                     4            1928615021            1693040457             517822585            1926665976

 !ENERGIES and STATISTICS
TTTTTTTTTTTTTTTTTTTTTTTTTTTTTTTTTTTTTTTTTTTTTTTTTTTTTTTTTTTT
TTTTTTTTTTTTTTTTTTTTTTTTTTTTTTTTTTTTTTTTTTTTTTTTTTTTTTTTTTTTTTTTTTTTTTTTTTTTTTTTTTTTTTTTTTTTTTTTTTTTTTTTTTTTTTTTTTTTTTTTTTTTTTTT
       0 0.119598976012267D+09 0.119598976012267D+09 0.348239905446473D+03
 0.234645679328134D+03 0.239261741025220D+06 0.572664747350784D+08
 0.158770886276094D+03 0.156050330940390D+06 0.244217339986305D+08
 0.758747930520402D+02 0.832114100848289D+05 0.699541741418723D+07
 0.354311061637927D+03 0.348239905446473D+06 0.121619770909598D+09
 0.198220629018641D+02 0.204008445188139D+05 0.417189482653364D+06
 0.000000000000000D+00 0.000000000000000D+00 0.000000000000000D+00
 0.000000000000000D+00 0.000000000000000D+00 0.000000000000000D+00
 0.000000000000000D+00 0.000000000000000D+00 0.000000000000000D+00
 0.000000000000000D+00 0.000000000000000D+00 0.000000000000000D+00
 0.000000000000000D+00 0.000000000000000D+00 0.000000000000000D+00
 0.236696634024607D+03 0.241246182141382D+06 0.582198606114310D+08
 0.164171640742316D+03 0.161989565777880D+06 0.263055600275585D+08
 0.205095469647303D+01 0.198444111616346D+04 0.416094483701944D+04
 0.000000000000000D+00 0.000000000000000D+00 0.000000000000000D+00
 0.000000000000000D+00 0.000000000000000D+00 0.000000000000000D+00
 0.000000000000000D+00 0.000000000000000D+00 0.000000000000000D+00
 0.000000000000000D+00 0.000000000000000D+00 0.000000000000000D+00
-0.190629779284542D+02-0.105693602641598D+06 0.317144950226169D+08
-0.627296674568043D+01 0.376577744443896D+04 0.275086196391181D+05
 0.380039170112020D+02 0.152891737795738D+06 0.699778573500821D+08
 0.236696634024607D+03 0.241246182141382D+06 0.582198606114310D+08
 0.758747930520402D+02 0.832114100848289D+05 0.699541741418723D+07
 0.161953685919449D+03 0.161993142426773D+06 0.263171450157812D+08
 0.166389595565184D+03 0.161985989128988D+06 0.263148791795648D+08
 0.000000000000000D+00 0.000000000000000D+00 0.000000000000000D+00
 0.000000000000000D+00 0.000000000000000D+00 0.000000000000000D+00
 0.000000000000000D+00 0.000000000000000D+00 0.000000000000000D+00
 0.000000000000000D+00 0.000000000000000D+00 0.000000000000000D+00
 0.000000000000000D+00 0.000000000000000D+00 0.000000000000000D+00
 0.000000000000000D+00 0.000000000000000D+00 0.000000000000000D+00
 0.000000000000000D+00 0.000000000000000D+00 0.000000000000000D+00
 0.000000000000000D+00 0.000000000000000D+00 0.000000000000000D+00
 0.000000000000000D+00 0.000000000000000D+00 0.000000000000000D+00
 0.000000000000000D+00 0.000000000000000D+00 0.000000000000000D+00
 0.000000000000000D+00 0.000000000000000D+00 0.000000000000000D+00
 0.000000000000000D+00 0.000000000000000D+00 0.000000000000000D+00
 0.000000000000000D+00 0.000000000000000D+00 0.000000000000000D+00
 0.000000000000000D+00 0.000000000000000D+00 0.000000000000000D+00
 0.000000000000000D+00 0.000000000000000D+00 0.000000000000000D+00
 0.000000000000000D+00 0.000000000000000D+00 0.000000000000000D+00
 0.000000000000000D+00 0.000000000000000D+00 0.000000000000000D+00
 0.000000000000000D+00 0.000000000000000D+00 0.000000000000000D+00
 0.000000000000000D+00 0.000000000000000D+00 0.000000000000000D+00
 0.000000000000000D+00 0.000000000000000D+00 0.000000000000000D+00
 0.000000000000000D+00 0.000000000000000D+00 0.000000000000000D+00
 0.000000000000000D+00 0.000000000000000D+00 0.000000000000000D+00
 0.000000000000000D+00 0.000000000000000D+00 0.000000000000000D+00
 0.000000000000000D+00 0.000000000000000D+00 0.000000000000000D+00
 0.000000000000000D+00 0.000000000000000D+00 0.000000000000000D+00
 0.000000000000000D+00 0.000000000000000D+00 0.000000000000000D+00
 0.000000000000000D+00 0.000000000000000D+00 0.000000000000000D+00
 0.000000000000000D+00 0.000000000000000D+00 0.000000000000000D+00
 0.000000000000000D+00 0.000000000000000D+00 0.000000000000000D+00
 0.000000000000000D+00 0.000000000000000D+00 0.000000000000000D+00
 0.000000000000000D+00 0.000000000000000D+00 0.000000000000000D+00
 0.000000000000000D+00 0.000000000000000D+00 0.000000000000000D+00
 0.000000000000000D+00 0.000000000000000D+00 0.000000000000000D+00
 0.000000000000000D+00 0.000000000000000D+00 0.000000000000000D+00
 0.000000000000000D+00 0.000000000000000D+00 0.000000000000000D+00
 0.000000000000000D+00 0.000000000000000D+00 0.000000000000000D+00
 0.239261741025220D+03 0.450488808509417D+01
 0.156050330940390D+03 0.836828608647942D+01
 0.832114100848289D+02 0.844266817313482D+01
 0.348239905446473D+03 0.186745592780424D+02
 0.204008445188139D+02 0.997509685437935D+00
 0.000000000000000D+00 0.000000000000000D+00
 0.000000000000000D+00 0.000000000000000D+00
 0.000000000000000D+00 0.000000000000000D+00
 0.000000000000000D+00 0.000000000000000D+00
 0.000000000000000D+00 0.000000000000000D+00
 0.241246182141382D+03 0.448778493668295D+01
 0.161989565777880D+03 0.805857348742853D+01
 0.198444111616346D+01 0.472163418213843D+00
 0.000000000000000D+00 0.000000000000000D+00
 0.000000000000000D+00 0.000000000000000D+00
 0.000000000000000D+00 0.000000000000000D+00
 0.000000000000000D+00 0.000000000000000D+00
-0.105693602641598D+03 0.143329541209260D+03
 0.376577744443896D+01 0.365069032897517D+01
 0.152891737795738D+03 0.215874903274747D+03
 0.241246182141382D+03 0.448778493668295D+01
 0.832114100848289D+02 0.844266817313482D+01
 0.161993142426773D+03 0.868140671091408D+01
 0.161985989128988D+03 0.868438284900735D+01
 0.000000000000000D+00 0.000000000000000D+00
 0.000000000000000D+00 0.000000000000000D+00
 0.000000000000000D+00 0.000000000000000D+00
 0.000000000000000D+00 0.000000000000000D+00
 0.000000000000000D+00 0.000000000000000D+00
 0.000000000000000D+00 0.000000000000000D+00
 0.000000000000000D+00 0.000000000000000D+00
 0.000000000000000D+00 0.000000000000000D+00
 0.000000000000000D+00 0.000000000000000D+00
 0.000000000000000D+00 0.000000000000000D+00
 0.000000000000000D+00 0.000000000000000D+00
 0.000000000000000D+00 0.000000000000000D+00
 0.000000000000000D+00 0.000000000000000D+00
 0.000000000000000D+00 0.000000000000000D+00
 0.000000000000000D+00 0.000000000000000D+00
 0.000000000000000D+00 0.000000000000000D+00
 0.000000000000000D+00 0.000000000000000D+00
 0.000000000000000D+00 0.000000000000000D+00
 0.000000000000000D+00 0.000000000000000D+00
 0.000000000000000D+00 0.000000000000000D+00
 0.000000000000000D+00 0.000000000000000D+00
 0.000000000000000D+00 0.000000000000000D+00
 0.000000000000000D+00 0.000000000000000D+00
 0.000000000000000D+00 0.000000000000000D+00
 0.000000000000000D+00 0.000000000000000D+00
 0.000000000000000D+00 0.000000000000000D+00
 0.000000000000000D+00 0.000000000000000D+00
 0.000000000000000D+00 0.000000000000000D+00
 0.000000000000000D+00 0.000000000000000D+00
 0.000000000000000D+00 0.000000000000000D+00
 0.000000000000000D+00 0.000000000000000D+00
 0.000000000000000D+00 0.000000000000000D+00
 0.000000000000000D+00 0.000000000000000D+00
 0.000000000000000D+00 0.000000000000000D+00
 0.000000000000000D+00 0.000000000000000D+00
 0.000000000000000D+00 0.000000000000000D+00
 0.377178135804311D+02 0.401891361216969D+05 0.164496582385844D+07
 0.101086237781508D+03 0.109239086397773D+06 0.119962922989647D+08
 0.114487004151222D+02 0.120748760797247D+05 0.148900842565140D+06
 0.882904814898462D+02 0.858755001860146D+05 0.738605232837717D+07
 0.140523635876698D+02 0.100638052662117D+05 0.106000691911611D+06
-0.212332301581792D+02-0.206290681887382D+05 0.447838750270361D+06
-0.148390979324157D+03-0.147240654673256D+06 0.217136682645654D+08
 0.000000000000000D+00 0.000000000000000D+00 0.000000000000000D+00
 0.000000000000000D+00 0.000000000000000D+00 0.000000000000000D+00
 0.367664322096875D+00 0.880802977121341D+03 0.949857394089675D+03
 0.000000000000000D+00 0.000000000000000D+00 0.000000000000000D+00
 0.000000000000000D+00 0.000000000000000D+00 0.000000000000000D+00
 0.000000000000000D+00 0.000000000000000D+00 0.000000000000000D+00
 0.000000000000000D+00 0.000000000000000D+00 0.000000000000000D+00
 0.000000000000000D+00 0.000000000000000D+00 0.000000000000000D+00
 0.000000000000000D+00 0.000000000000000D+00 0.000000000000000D+00
 0.000000000000000D+00 0.000000000000000D+00 0.000000000000000D+00
 0.000000000000000D+00 0.000000000000000D+00 0.000000000000000D+00
 0.000000000000000D+00 0.000000000000000D+00 0.000000000000000D+00
 0.000000000000000D+00 0.000000000000000D+00 0.000000000000000D+00
 0.000000000000000D+00 0.000000000000000D+00 0.000000000000000D+00
 0.000000000000000D+00 0.000000000000000D+00 0.000000000000000D+00
 0.000000000000000D+00 0.000000000000000D+00 0.000000000000000D+00
 0.000000000000000D+00 0.000000000000000D+00 0.000000000000000D+00
 0.000000000000000D+00 0.000000000000000D+00 0.000000000000000D+00
 0.000000000000000D+00 0.000000000000000D+00 0.000000000000000D+00
 0.000000000000000D+00 0.000000000000000D+00 0.000000000000000D+00
 0.000000000000000D+00 0.000000000000000D+00 0.000000000000000D+00
 0.000000000000000D+00 0.000000000000000D+00 0.000000000000000D+00
 0.000000000000000D+00 0.000000000000000D+00 0.000000000000000D+00
 0.000000000000000D+00 0.000000000000000D+00 0.000000000000000D+00
 0.000000000000000D+00 0.000000000000000D+00 0.000000000000000D+00
 0.000000000000000D+00 0.000000000000000D+00 0.000000000000000D+00
 0.000000000000000D+00 0.000000000000000D+00 0.000000000000000D+00
 0.000000000000000D+00 0.000000000000000D+00 0.000000000000000D+00
 0.000000000000000D+00 0.000000000000000D+00 0.000000000000000D+00
 0.000000000000000D+00 0.000000000000000D+00 0.000000000000000D+00
 0.000000000000000D+00 0.000000000000000D+00 0.000000000000000D+00
 0.000000000000000D+00 0.000000000000000D+00 0.000000000000000D+00
 0.000000000000000D+00 0.000000000000000D+00 0.000000000000000D+00
 0.000000000000000D+00 0.000000000000000D+00 0.000000000000000D+00
 0.000000000000000D+00 0.000000000000000D+00 0.000000000000000D+00
 0.000000000000000D+00 0.000000000000000D+00 0.000000000000000D+00
 0.000000000000000D+00 0.000000000000000D+00 0.000000000000000D+00
 0.000000000000000D+00 0.000000000000000D+00 0.000000000000000D+00
 0.000000000000000D+00 0.000000000000000D+00 0.000000000000000D+00
 0.000000000000000D+00 0.000000000000000D+00 0.000000000000000D+00
 0.000000000000000D+00 0.000000000000000D+00 0.000000000000000D+00
 0.000000000000000D+00 0.000000000000000D+00 0.000000000000000D+00
 0.000000000000000D+00 0.000000000000000D+00 0.000000000000000D+00
 0.000000000000000D+00 0.000000000000000D+00 0.000000000000000D+00
 0.000000000000000D+00 0.000000000000000D+00 0.000000000000000D+00
 0.000000000000000D+00 0.000000000000000D+00 0.000000000000000D+00
 0.000000000000000D+00 0.000000000000000D+00 0.000000000000000D+00
 0.000000000000000D+00 0.000000000000000D+00 0.000000000000000D+00
 0.000000000000000D+00 0.000000000000000D+00 0.000000000000000D+00
 0.000000000000000D+00 0.000000000000000D+00 0.000000000000000D+00
 0.000000000000000D+00 0.000000000000000D+00 0.000000000000000D+00
 0.000000000000000D+00 0.000000000000000D+00 0.000000000000000D+00
 0.000000000000000D+00 0.000000000000000D+00 0.000000000000000D+00
 0.000000000000000D+00 0.000000000000000D+00 0.000000000000000D+00
 0.000000000000000D+00 0.000000000000000D+00 0.000000000000000D+00
 0.000000000000000D+00 0.000000000000000D+00 0.000000000000000D+00
 0.000000000000000D+00 0.000000000000000D+00 0.000000000000000D+00
 0.000000000000000D+00 0.000000000000000D+00 0.000000000000000D+00
 0.000000000000000D+00 0.000000000000000D+00 0.000000000000000D+00
 0.000000000000000D+00 0.000000000000000D+00 0.000000000000000D+00
 0.000000000000000D+00 0.000000000000000D+00 0.000000000000000D+00
-0.746425864229862D+01-0.724207408171894D+04 0.590943756559324D+05
 0.000000000000000D+00 0.000000000000000D+00 0.000000000000000D+00
 0.000000000000000D+00 0.000000000000000D+00 0.000000000000000D+00
 0.000000000000000D+00 0.000000000000000D+00 0.000000000000000D+00
 0.000000000000000D+00 0.000000000000000D+00 0.000000000000000D+00
 0.000000000000000D+00 0.000000000000000D+00 0.000000000000000D+00
 0.000000000000000D+00 0.000000000000000D+00 0.000000000000000D+00
 0.000000000000000D+00 0.000000000000000D+00 0.000000000000000D+00
 0.000000000000000D+00 0.000000000000000D+00 0.000000000000000D+00
 0.000000000000000D+00 0.000000000000000D+00 0.000000000000000D+00
 0.000000000000000D+00 0.000000000000000D+00 0.000000000000000D+00
 0.000000000000000D+00 0.000000000000000D+00 0.000000000000000D+00
 0.000000000000000D+00 0.000000000000000D+00 0.000000000000000D+00
 0.000000000000000D+00 0.000000000000000D+00 0.000000000000000D+00
 0.000000000000000D+00 0.000000000000000D+00 0.000000000000000D+00
 0.000000000000000D+00 0.000000000000000D+00 0.000000000000000D+00
 0.000000000000000D+00 0.000000000000000D+00 0.000000000000000D+00
 0.000000000000000D+00 0.000000000000000D+00 0.000000000000000D+00
 0.000000000000000D+00 0.000000000000000D+00 0.000000000000000D+00
 0.000000000000000D+00 0.000000000000000D+00 0.000000000000000D+00
 0.000000000000000D+00 0.000000000000000D+00 0.000000000000000D+00
 0.000000000000000D+00 0.000000000000000D+00 0.000000000000000D+00
 0.000000000000000D+00 0.000000000000000D+00 0.000000000000000D+00
 0.000000000000000D+00 0.000000000000000D+00 0.000000000000000D+00
 0.000000000000000D+00 0.000000000000000D+00 0.000000000000000D+00
 0.000000000000000D+00 0.000000000000000D+00 0.000000000000000D+00
 0.000000000000000D+00 0.000000000000000D+00 0.000000000000000D+00
 0.000000000000000D+00 0.000000000000000D+00 0.000000000000000D+00
 0.000000000000000D+00 0.000000000000000D+00 0.000000000000000D+00
 0.000000000000000D+00 0.000000000000000D+00 0.000000000000000D+00
 0.000000000000000D+00 0.000000000000000D+00 0.000000000000000D+00
 0.000000000000000D+00 0.000000000000000D+00 0.000000000000000D+00
 0.000000000000000D+00 0.000000000000000D+00 0.000000000000000D+00
 0.000000000000000D+00 0.000000000000000D+00 0.000000000000000D+00
 0.000000000000000D+00 0.000000000000000D+00 0.000000000000000D+00
 0.000000000000000D+00 0.000000000000000D+00 0.000000000000000D+00
 0.000000000000000D+00 0.000000000000000D+00 0.000000000000000D+00
 0.000000000000000D+00 0.000000000000000D+00 0.000000000000000D+00
 0.000000000000000D+00 0.000000000000000D+00 0.000000000000000D+00
 0.000000000000000D+00 0.000000000000000D+00 0.000000000000000D+00
 0.000000000000000D+00 0.000000000000000D+00 0.000000000000000D+00
 0.000000000000000D+00 0.000000000000000D+00 0.000000000000000D+00
 0.000000000000000D+00 0.000000000000000D+00 0.000000000000000D+00
 0.000000000000000D+00 0.000000000000000D+00 0.000000000000000D+00
 0.000000000000000D+00 0.000000000000000D+00 0.000000000000000D+00
 0.000000000000000D+00 0.000000000000000D+00 0.000000000000000D+00
 0.000000000000000D+00 0.000000000000000D+00 0.000000000000000D+00
 0.000000000000000D+00 0.000000000000000D+00 0.000000000000000D+00
 0.000000000000000D+00 0.000000000000000D+00 0.000000000000000D+00
 0.000000000000000D+00 0.000000000000000D+00 0.000000000000000D+00
 0.000000000000000D+00 0.000000000000000D+00 0.000000000000000D+00
 0.000000000000000D+00 0.000000000000000D+00 0.000000000000000D+00
 0.000000000000000D+00 0.000000000000000D+00 0.000000000000000D+00
 0.000000000000000D+00 0.000000000000000D+00 0.000000000000000D+00
 0.000000000000000D+00 0.000000000000000D+00 0.000000000000000D+00
 0.000000000000000D+00 0.000000000000000D+00 0.000000000000000D+00
 0.000000000000000D+00 0.000000000000000D+00 0.000000000000000D+00
 0.000000000000000D+00 0.000000000000000D+00 0.000000000000000D+00
 0.000000000000000D+00 0.000000000000000D+00 0.000000000000000D+00
 0.000000000000000D+00 0.000000000000000D+00 0.000000000000000D+00
 0.401891361216969D+02 0.545886083813769D+01
 0.109239086397773D+03 0.794445101593965D+01
 0.120748760797247D+02 0.176017335067637D+01
 0.858755001860146D+02 0.338390250731117D+01
 0.100638052662117D+02 0.217267472838888D+01
-0.206290681887382D+02 0.472020083627259D+01
-0.147240654673256D+03 0.581875209614638D+01
 0.000000000000000D+00 0.000000000000000D+00
 0.000000000000000D+00 0.000000000000000D+00
 0.880802977121341D+00 0.417185222154211D+00
 0.000000000000000D+00 0.000000000000000D+00
 0.000000000000000D+00 0.000000000000000D+00
 0.000000000000000D+00 0.000000000000000D+00
 0.000000000000000D+00 0.000000000000000D+00
 0.000000000000000D+00 0.000000000000000D+00
 0.000000000000000D+00 0.000000000000000D+00
 0.000000000000000D+00 0.000000000000000D+00
 0.000000000000000D+00 0.000000000000000D+00
 0.000000000000000D+00 0.000000000000000D+00
 0.000000000000000D+00 0.000000000000000D+00
 0.000000000000000D+00 0.000000000000000D+00
 0.000000000000000D+00 0.000000000000000D+00
 0.000000000000000D+00 0.000000000000000D+00
 0.000000000000000D+00 0.000000000000000D+00
 0.000000000000000D+00 0.000000000000000D+00
 0.000000000000000D+00 0.000000000000000D+00
 0.000000000000000D+00 0.000000000000000D+00
 0.000000000000000D+00 0.000000000000000D+00
 0.000000000000000D+00 0.000000000000000D+00
 0.000000000000000D+00 0.000000000000000D+00
 0.000000000000000D+00 0.000000000000000D+00
 0.000000000000000D+00 0.000000000000000D+00
 0.000000000000000D+00 0.000000000000000D+00
 0.000000000000000D+00 0.000000000000000D+00
 0.000000000000000D+00 0.000000000000000D+00
 0.000000000000000D+00 0.000000000000000D+00
 0.000000000000000D+00 0.000000000000000D+00
 0.000000000000000D+00 0.000000000000000D+00
 0.000000000000000D+00 0.000000000000000D+00
 0.000000000000000D+00 0.000000000000000D+00
 0.000000000000000D+00 0.000000000000000D+00
 0.000000000000000D+00 0.000000000000000D+00
 0.000000000000000D+00 0.000000000000000D+00
 0.000000000000000D+00 0.000000000000000D+00
 0.000000000000000D+00 0.000000000000000D+00
 0.000000000000000D+00 0.000000000000000D+00
 0.000000000000000D+00 0.000000000000000D+00
 0.000000000000000D+00 0.000000000000000D+00
 0.000000000000000D+00 0.000000000000000D+00
 0.000000000000000D+00 0.000000000000000D+00
 0.000000000000000D+00 0.000000000000000D+00
 0.000000000000000D+00 0.000000000000000D+00
 0.000000000000000D+00 0.000000000000000D+00
 0.000000000000000D+00 0.000000000000000D+00
 0.000000000000000D+00 0.000000000000000D+00
 0.000000000000000D+00 0.000000000000000D+00
 0.000000000000000D+00 0.000000000000000D+00
 0.000000000000000D+00 0.000000000000000D+00
 0.000000000000000D+00 0.000000000000000D+00
 0.000000000000000D+00 0.000000000000000D+00
 0.000000000000000D+00 0.000000000000000D+00
 0.000000000000000D+00 0.000000000000000D+00
 0.000000000000000D+00 0.000000000000000D+00
 0.000000000000000D+00 0.000000000000000D+00
 0.000000000000000D+00 0.000000000000000D+00
 0.000000000000000D+00 0.000000000000000D+00
 0.000000000000000D+00 0.000000000000000D+00
 0.000000000000000D+00 0.000000000000000D+00
-0.724207408171894D+01 0.257812696561422D+01
 0.000000000000000D+00 0.000000000000000D+00
 0.000000000000000D+00 0.000000000000000D+00
 0.000000000000000D+00 0.000000000000000D+00
 0.000000000000000D+00 0.000000000000000D+00
 0.000000000000000D+00 0.000000000000000D+00
 0.000000000000000D+00 0.000000000000000D+00
 0.000000000000000D+00 0.000000000000000D+00
 0.000000000000000D+00 0.000000000000000D+00
 0.000000000000000D+00 0.000000000000000D+00
 0.000000000000000D+00 0.000000000000000D+00
 0.000000000000000D+00 0.000000000000000D+00
 0.000000000000000D+00 0.000000000000000D+00
 0.000000000000000D+00 0.000000000000000D+00
 0.000000000000000D+00 0.000000000000000D+00
 0.000000000000000D+00 0.000000000000000D+00
 0.000000000000000D+00 0.000000000000000D+00
 0.000000000000000D+00 0.000000000000000D+00
 0.000000000000000D+00 0.000000000000000D+00
 0.000000000000000D+00 0.000000000000000D+00
 0.000000000000000D+00 0.000000000000000D+00
 0.000000000000000D+00 0.000000000000000D+00
 0.000000000000000D+00 0.000000000000000D+00
 0.000000000000000D+00 0.000000000000000D+00
 0.000000000000000D+00 0.000000000000000D+00
 0.000000000000000D+00 0.000000000000000D+00
 0.000000000000000D+00 0.000000000000000D+00
 0.000000000000000D+00 0.000000000000000D+00
 0.000000000000000D+00 0.000000000000000D+00
 0.000000000000000D+00 0.000000000000000D+00
 0.000000000000000D+00 0.000000000000000D+00
 0.000000000000000D+00 0.000000000000000D+00
 0.000000000000000D+00 0.000000000000000D+00
 0.000000000000000D+00 0.000000000000000D+00
 0.000000000000000D+00 0.000000000000000D+00
 0.000000000000000D+00 0.000000000000000D+00
 0.000000000000000D+00 0.000000000000000D+00
 0.000000000000000D+00 0.000000000000000D+00
 0.000000000000000D+00 0.000000000000000D+00
 0.000000000000000D+00 0.000000000000000D+00
 0.000000000000000D+00 0.000000000000000D+00
 0.000000000000000D+00 0.000000000000000D+00
 0.000000000000000D+00 0.000000000000000D+00
 0.000000000000000D+00 0.000000000000000D+00
 0.000000000000000D+00 0.000000000000000D+00
 0.000000000000000D+00 0.000000000000000D+00
 0.000000000000000D+00 0.000000000000000D+00
 0.000000000000000D+00 0.000000000000000D+00
 0.000000000000000D+00 0.000000000000000D+00
 0.000000000000000D+00 0.000000000000000D+00
 0.000000000000000D+00 0.000000000000000D+00
 0.000000000000000D+00 0.000000000000000D+00
 0.000000000000000D+00 0.000000000000000D+00
 0.000000000000000D+00 0.000000000000000D+00
 0.000000000000000D+00 0.000000000000000D+00
 0.000000000000000D+00 0.000000000000000D+00
 0.000000000000000D+00 0.000000000000000D+00
 0.000000000000000D+00 0.000000000000000D+00
 0.000000000000000D+00 0.000000000000000D+00
 0.000000000000000D+00 0.000000000000000D+00
-0.168233239727372D+02 0.202395743056601D+05 0.553376347935346D+06
-0.976177679972352D+00 0.763367218389707D+04 0.140666344948823D+06
-0.145112805590184D+02-0.170085032012537D+05 0.343705901473730D+06
 0.107926896081990D+02-0.143179600908698D+05 0.277604583420715D+06
 0.626248577241086D+00-0.550136375647871D+04 0.726675682217312D+05
 0.930944129381214D+01 0.117792388797143D+05 0.163604706727113D+06
-0.303955316208624D+01 0.402522791343948D+04 0.217377941721306D+05
-0.176370850298440D+00 0.149001908326285D+04 0.565394167048332D+04
-0.262182484154516D+01-0.344087821586448D+04 0.146209889571773D+05
 0.950590302270781D+02-0.103042402964873D+06 0.740121828440309D+08
 0.114140416046990D+03 0.679880565015468D+03 0.149497362944901D+08
-0.144862003816433D+03 0.253778156470708D+04 0.292471808780331D+08
 0.114090555041076D+03 0.627274794764437D+03 0.149495997212640D+08
-0.507293434918186D+02-0.106713400702611D+06 0.394362637197410D+08
 0.250877767609100D+03-0.219323256996852D+04 0.100614057080140D+08
-0.144901057760984D+03 0.251368219188682D+04 0.292472672828349D+08
 0.250900798530212D+03-0.219509947667806D+04 0.100614708360744D+08
-0.101518620520622D+03-0.107325004257309D+06 0.460318611707153D+08
 0.000000000000000D+00 0.000000000000000D+00 0.000000000000000D+00
 0.000000000000000D+00 0.000000000000000D+00 0.000000000000000D+00
 0.000000000000000D+00 0.000000000000000D+00 0.000000000000000D+00
 0.000000000000000D+00 0.000000000000000D+00 0.000000000000000D+00
 0.000000000000000D+00 0.000000000000000D+00 0.000000000000000D+00
 0.000000000000000D+00 0.000000000000000D+00 0.000000000000000D+00
 0.000000000000000D+00 0.000000000000000D+00 0.000000000000000D+00
 0.000000000000000D+00 0.000000000000000D+00 0.000000000000000D+00
 0.000000000000000D+00 0.000000000000000D+00 0.000000000000000D+00
 0.000000000000000D+00 0.000000000000000D+00 0.000000000000000D+00
 0.000000000000000D+00 0.000000000000000D+00 0.000000000000000D+00
 0.000000000000000D+00 0.000000000000000D+00 0.000000000000000D+00
 0.000000000000000D+00 0.000000000000000D+00 0.000000000000000D+00
 0.000000000000000D+00 0.000000000000000D+00 0.000000000000000D+00
 0.000000000000000D+00 0.000000000000000D+00 0.000000000000000D+00
 0.000000000000000D+00 0.000000000000000D+00 0.000000000000000D+00
 0.000000000000000D+00 0.000000000000000D+00 0.000000000000000D+00
 0.000000000000000D+00 0.000000000000000D+00 0.000000000000000D+00
 0.000000000000000D+00 0.000000000000000D+00 0.000000000000000D+00
 0.000000000000000D+00 0.000000000000000D+00 0.000000000000000D+00
 0.000000000000000D+00 0.000000000000000D+00 0.000000000000000D+00
 0.000000000000000D+00 0.000000000000000D+00 0.000000000000000D+00
 0.000000000000000D+00 0.000000000000000D+00 0.000000000000000D+00
 0.000000000000000D+00 0.000000000000000D+00 0.000000000000000D+00
 0.000000000000000D+00 0.000000000000000D+00 0.000000000000000D+00
 0.000000000000000D+00 0.000000000000000D+00 0.000000000000000D+00
 0.000000000000000D+00 0.000000000000000D+00 0.000000000000000D+00
 0.000000000000000D+00 0.000000000000000D+00 0.000000000000000D+00
 0.000000000000000D+00 0.000000000000000D+00 0.000000000000000D+00
 0.000000000000000D+00 0.000000000000000D+00 0.000000000000000D+00
 0.000000000000000D+00 0.000000000000000D+00 0.000000000000000D+00
 0.000000000000000D+00 0.000000000000000D+00 0.000000000000000D+00
 0.202395743056601D+02 0.119889941138117D+02
 0.763367218389707D+01 0.907708069467378D+01
-0.170085032012537D+02 0.737676896253856D+01
-0.143179600908698D+02 0.852059870296532D+01
-0.550136375647871D+01 0.651172519695308D+01
 0.117792388797143D+02 0.498540250548937D+01
 0.402522791343948D+01 0.235272914229374D+01
 0.149001908326285D+01 0.185304743652068D+01
-0.344087821586448D+01 0.166773680800255D+01
-0.103042402964873D+03 0.251782537192824D+03
 0.679880565015468D+00 0.122267223968271D+03
 0.253778156470708D+01 0.170999241351425D+03
 0.627274794764437D+00 0.122266946668328D+03
-0.106713400702611D+03 0.167476905363769D+03
-0.219323256996852D+01 0.100282577943071D+03
 0.251368219188682D+01 0.170999849955119D+03
-0.219509947667806D+01 0.100282861817770D+03
-0.107325004257309D+03 0.185777298483652D+03
 0.000000000000000D+00 0.000000000000000D+00
 0.000000000000000D+00 0.000000000000000D+00
 0.000000000000000D+00 0.000000000000000D+00
 0.000000000000000D+00 0.000000000000000D+00
 0.000000000000000D+00 0.000000000000000D+00
 0.000000000000000D+00 0.000000000000000D+00
 0.000000000000000D+00 0.000000000000000D+00
 0.000000000000000D+00 0.000000000000000D+00
 0.000000000000000D+00 0.000000000000000D+00
 0.000000000000000D+00 0.000000000000000D+00
 0.000000000000000D+00 0.000000000000000D+00
 0.000000000000000D+00 0.000000000000000D+00
 0.000000000000000D+00 0.000000000000000D+00
 0.000000000000000D+00 0.000000000000000D+00
 0.000000000000000D+00 0.000000000000000D+00
 0.000000000000000D+00 0.000000000000000D+00
 0.000000000000000D+00 0.000000000000000D+00
 0.000000000000000D+00 0.000000000000000D+00
 0.000000000000000D+00 0.000000000000000D+00
 0.000000000000000D+00 0.000000000000000D+00
 0.000000000000000D+00 0.000000000000000D+00
 0.000000000000000D+00 0.000000000000000D+00
 0.000000000000000D+00 0.000000000000000D+00
 0.000000000000000D+00 0.000000000000000D+00
 0.000000000000000D+00 0.000000000000000D+00
 0.000000000000000D+00 0.000000000000000D+00
 0.000000000000000D+00 0.000000000000000D+00
 0.000000000000000D+00 0.000000000000000D+00
 0.000000000000000D+00 0.000000000000000D+00
 0.000000000000000D+00 0.000000000000000D+00
 0.000000000000000D+00 0.000000000000000D+00
 0.000000000000000D+00 0.000000000000000D+00

 !XOLD, YOLD, ZOLD
 0.192344689151663D+02-0.841232465299216D+01 0.494561363227328D+01
 0.192024748409174D+02-0.735457368484188D+01 0.460729645120208D+01
 0.203399832162914D+02-0.852196708616909D+01 0.495734695519694D+01
 0.188454358798871D+02-0.849767833395175D+01 0.598276696642986D+01
 0.185951944371549D+02-0.930374367783983D+01 0.395595779278860D+01
 0.178369704172919D+02-0.877070544672995D+01 0.315197927932461D+01
 0.188161613796644D+02-0.106200475941608D+02 0.420067903067232D+01
 0.193673019766541D+02-0.108881180705555D+02 0.498705760493246D+01
 0.183379718698719D+02-0.117643837065816D+02 0.331321209016984D+01
 0.190379101687081D+02-0.118518510419480D+02 0.249538798027789D+01
 0.186575081424007D+02-0.131067964492742D+02 0.408342102825806D+01
 0.196332351444544D+02-0.130288390289652D+02 0.460896879781366D+01
 0.179159020406404D+02-0.131829147875980D+02 0.490716125951733D+01
 0.185494511671066D+02-0.139522483097299D+02 0.337078089519227D+01
 0.169450890900812D+02-0.116861376645856D+02 0.282128501690812D+01
 0.165943725341429D+02-0.117030862239785D+02 0.158295639498975D+01
 0.159997404026584D+02-0.115382358365305D+02 0.376167187230932D+01
 0.161695840451110D+02-0.115507156145788D+02 0.474401926116483D+01
 0.145500235655175D+02-0.115850183073051D+02 0.336169986194684D+01
 0.143100608634466D+02-0.124825121025133D+02 0.281095237827393D+01
 0.136993407946755D+02-0.116661992091406D+02 0.467384815993750D+01
 0.139239508165584D+02-0.126506061435295D+02 0.513732882362493D+01
 0.141140132593737D+02-0.108549156365292D+02 0.530960620261239D+01
 0.126043816960001D+02-0.117362533345317D+02 0.449926832915792D+01
 0.141027086718233D+02-0.103764451029106D+02 0.263261222860394D+01
 0.131412371131627D+02-0.105050304191230D+02 0.187139868676953D+01
 0.147931064147832D+02-0.916677539863486D+01 0.273044283892682D+01
 0.156113929032563D+02-0.912579346353099D+01 0.329854206604198D+01
 0.143433730585561D+02-0.802773295991980D+01 0.188632624948457D+01
 0.132671378873997D+02-0.794272833539209D+01 0.191619380742770D+01
 0.148189162074800D+02-0.659626631856250D+01 0.231988308279229D+01
 0.144122211244415D+02-0.655446496720987D+01 0.335292362239751D+01
 0.159172914623850D+02-0.648044791427235D+01 0.244021150178863D+01
 0.142302966371060D+02-0.550596052101622D+01 0.137017932697748D+01
 0.133728034822752D+02-0.580839961298287D+01 0.731777349325363D+00
 0.139912953770067D+02-0.464224970275370D+01 0.202683989028696D+01
 0.153501704301745D+02-0.498621509056577D+01 0.485952633774750D+00